+ 1 0 2 tcp 40 ------- 0 0.0 2.0 0 0
- 1 0 2 tcp 40 ------- 0 0.0 2.0 0 0
r 1.010003 0 2 tcp 40 ------- 0 0.0 2.0 0 0
+ 1.010003 2 0 ack 40 ------- 0 2.0 0.0 0 1
- 1.010003 2 0 ack 40 ------- 0 2.0 0.0 0 1
r 1.020006 2 0 ack 40 ------- 0 2.0 0.0 0 1
+ 1.020006 0 2 tcp 1540 ------- 0 0.0 2.0 1 2
- 1.020006 0 2 tcp 1540 ------- 0 0.0 2.0 1 2
+ 1.020006 0 2 tcp 1540 ------- 0 0.0 2.0 2 3
- 1.02013 0 2 tcp 1540 ------- 0 0.0 2.0 2 3
r 1.03013 0 2 tcp 1540 ------- 0 0.0 2.0 1 2
+ 1.03013 2 0 ack 40 ------- 0 2.0 0.0 1 4
- 1.03013 2 0 ack 40 ------- 0 2.0 0.0 1 4
r 1.030253 0 2 tcp 1540 ------- 0 0.0 2.0 2 3
+ 1.030253 2 0 ack 40 ------- 0 2.0 0.0 2 5
- 1.030253 2 0 ack 40 ------- 0 2.0 0.0 2 5
r 1.040133 2 0 ack 40 ------- 0 2.0 0.0 1 4
+ 1.040133 0 2 tcp 1540 ------- 0 0.0 2.0 3 6
- 1.040133 0 2 tcp 1540 ------- 0 0.0 2.0 3 6
+ 1.040133 0 2 tcp 1540 ------- 0 0.0 2.0 4 7
r 1.040256 2 0 ack 40 ------- 0 2.0 0.0 2 5
+ 1.040256 0 2 tcp 1540 ------- 0 0.0 2.0 5 8
d 1.040256 0 2 tcp 1540 ------- 0 0.0 2.0 5 8
+ 1.040256 0 2 tcp 1540 ------- 0 0.0 2.0 6 9
d 1.040256 0 2 tcp 1540 ------- 0 0.0 2.0 6 9
- 1.040256 0 2 tcp 1540 ------- 0 0.0 2.0 4 7
r 1.050256 0 2 tcp 1540 ------- 0 0.0 2.0 3 6
+ 1.050256 2 0 ack 40 ------- 0 2.0 0.0 3 10
- 1.050256 2 0 ack 40 ------- 0 2.0 0.0 3 10
r 1.050379 0 2 tcp 1540 ------- 0 0.0 2.0 4 7
+ 1.050379 2 0 ack 40 ------- 0 2.0 0.0 4 11
- 1.050379 2 0 ack 40 ------- 0 2.0 0.0 4 11
r 1.060259 2 0 ack 40 ------- 0 2.0 0.0 3 10
+ 1.060259 0 2 tcp 1540 ------- 0 0.0 2.0 7 12
- 1.060259 0 2 tcp 1540 ------- 0 0.0 2.0 7 12
+ 1.060259 0 2 tcp 1540 ------- 0 0.0 2.0 8 13
r 1.060382 2 0 ack 40 ------- 0 2.0 0.0 4 11
+ 1.060382 0 2 tcp 1540 ------- 0 0.0 2.0 9 14
d 1.060382 0 2 tcp 1540 ------- 0 0.0 2.0 9 14
+ 1.060382 0 2 tcp 1540 ------- 0 0.0 2.0 10 15
d 1.060382 0 2 tcp 1540 ------- 0 0.0 2.0 10 15
- 1.060382 0 2 tcp 1540 ------- 0 0.0 2.0 8 13
r 1.070382 0 2 tcp 1540 ------- 0 0.0 2.0 7 12
+ 1.070382 2 0 ack 40 ------- 0 2.0 0.0 4 16
- 1.070382 2 0 ack 40 ------- 0 2.0 0.0 4 16
r 1.070506 0 2 tcp 1540 ------- 0 0.0 2.0 8 13
+ 1.070506 2 0 ack 40 ------- 0 2.0 0.0 4 17
- 1.070506 2 0 ack 40 ------- 0 2.0 0.0 4 17
r 1.080386 2 0 ack 40 ------- 0 2.0 0.0 4 16
+ 1.080386 0 2 tcp 1540 ------- 0 0.0 2.0 11 18
- 1.080386 0 2 tcp 1540 ------- 0 0.0 2.0 11 18
r 1.080509 2 0 ack 40 ------- 0 2.0 0.0 4 17
+ 1.080509 0 2 tcp 1540 ------- 0 0.0 2.0 12 19
- 1.080509 0 2 tcp 1540 ------- 0 0.0 2.0 12 19
r 1.090509 0 2 tcp 1540 ------- 0 0.0 2.0 11 18
+ 1.090509 2 0 ack 40 ------- 0 2.0 0.0 4 20
- 1.090509 2 0 ack 40 ------- 0 2.0 0.0 4 20
r 1.090632 0 2 tcp 1540 ------- 0 0.0 2.0 12 19
+ 1.090632 2 0 ack 40 ------- 0 2.0 0.0 4 21
- 1.090632 2 0 ack 40 ------- 0 2.0 0.0 4 21
r 1.100512 2 0 ack 40 ------- 0 2.0 0.0 4 20
+ 1.100512 0 2 tcp 1540 ---A--- 0 0.0 2.0 5 22
- 1.100512 0 2 tcp 1540 ---A--- 0 0.0 2.0 5 22
r 1.100635 2 0 ack 40 ------- 0 2.0 0.0 4 21
r 1.110635 0 2 tcp 1540 ---A--- 0 0.0 2.0 5 22
+ 1.110635 2 0 ack 40 ------- 0 2.0 0.0 5 23
- 1.110635 2 0 ack 40 ------- 0 2.0 0.0 5 23
r 1.120638 2 0 ack 40 ------- 0 2.0 0.0 5 23
+ 1.120638 0 2 tcp 1540 ------- 0 0.0 2.0 6 24
- 1.120638 0 2 tcp 1540 ------- 0 0.0 2.0 6 24
+ 1.120638 0 2 tcp 1540 ------- 0 0.0 2.0 7 25
- 1.120762 0 2 tcp 1540 ------- 0 0.0 2.0 7 25
r 1.130762 0 2 tcp 1540 ------- 0 0.0 2.0 6 24
+ 1.130762 2 0 ack 40 ------- 0 2.0 0.0 8 26
- 1.130762 2 0 ack 40 ------- 0 2.0 0.0 8 26
r 1.130885 0 2 tcp 1540 ------- 0 0.0 2.0 7 25
+ 1.130885 2 0 ack 40 ------- 0 2.0 0.0 8 27
- 1.130885 2 0 ack 40 ------- 0 2.0 0.0 8 27
r 1.140765 2 0 ack 40 ------- 0 2.0 0.0 8 26
+ 1.140765 0 2 tcp 1540 ------- 0 0.0 2.0 9 28
- 1.140765 0 2 tcp 1540 ------- 0 0.0 2.0 9 28
+ 1.140765 0 2 tcp 1540 ------- 0 0.0 2.0 10 29
+ 1.140765 0 2 tcp 1540 ------- 0 0.0 2.0 11 30
d 1.140765 0 2 tcp 1540 ------- 0 0.0 2.0 11 30
r 1.140888 2 0 ack 40 ------- 0 2.0 0.0 8 27
+ 1.140888 0 2 tcp 1540 ------- 0 0.0 2.0 12 31
d 1.140888 0 2 tcp 1540 ------- 0 0.0 2.0 12 31
- 1.140888 0 2 tcp 1540 ------- 0 0.0 2.0 10 29
r 1.150888 0 2 tcp 1540 ------- 0 0.0 2.0 9 28
+ 1.150888 2 0 ack 40 ------- 0 2.0 0.0 9 32
- 1.150888 2 0 ack 40 ------- 0 2.0 0.0 9 32
r 1.151011 0 2 tcp 1540 ------- 0 0.0 2.0 10 29
+ 1.151011 2 0 ack 40 ------- 0 2.0 0.0 12 33
- 1.151011 2 0 ack 40 ------- 0 2.0 0.0 12 33
r 1.160891 2 0 ack 40 ------- 0 2.0 0.0 9 32
r 1.161014 2 0 ack 40 ------- 0 2.0 0.0 12 33
+ 1.161014 0 2 tcp 1540 ------- 0 0.0 2.0 13 34
- 1.161014 0 2 tcp 1540 ------- 0 0.0 2.0 13 34
+ 1.161014 0 2 tcp 1540 ------- 0 0.0 2.0 14 35
+ 1.161014 0 2 tcp 1540 ------- 0 0.0 2.0 15 36
d 1.161014 0 2 tcp 1540 ------- 0 0.0 2.0 15 36
- 1.161138 0 2 tcp 1540 ------- 0 0.0 2.0 14 35
r 1.171138 0 2 tcp 1540 ------- 0 0.0 2.0 13 34
+ 1.171138 2 0 ack 40 ------- 0 2.0 0.0 13 37
- 1.171138 2 0 ack 40 ------- 0 2.0 0.0 13 37
r 1.171261 0 2 tcp 1540 ------- 0 0.0 2.0 14 35
+ 1.171261 2 0 ack 40 ------- 0 2.0 0.0 14 38
- 1.171261 2 0 ack 40 ------- 0 2.0 0.0 14 38
r 1.181141 2 0 ack 40 ------- 0 2.0 0.0 13 37
+ 1.181141 0 2 tcp 1540 ------- 0 0.0 2.0 16 39
- 1.181141 0 2 tcp 1540 ------- 0 0.0 2.0 16 39
r 1.181264 2 0 ack 40 ------- 0 2.0 0.0 14 38
+ 1.181264 0 2 tcp 1540 ------- 0 0.0 2.0 17 40
+ 1.181264 0 2 tcp 1540 ------- 0 0.0 2.0 18 41
d 1.181264 0 2 tcp 1540 ------- 0 0.0 2.0 18 41
- 1.181264 0 2 tcp 1540 ------- 0 0.0 2.0 17 40
r 1.191264 0 2 tcp 1540 ------- 0 0.0 2.0 16 39
+ 1.191264 2 0 ack 40 ------- 0 2.0 0.0 14 42
- 1.191264 2 0 ack 40 ------- 0 2.0 0.0 14 42
r 1.191387 0 2 tcp 1540 ------- 0 0.0 2.0 17 40
+ 1.191387 2 0 ack 40 ------- 0 2.0 0.0 14 43
- 1.191387 2 0 ack 40 ------- 0 2.0 0.0 14 43
r 1.201267 2 0 ack 40 ------- 0 2.0 0.0 14 42
+ 1.201267 0 2 tcp 1540 ------- 0 0.0 2.0 19 44
- 1.201267 0 2 tcp 1540 ------- 0 0.0 2.0 19 44
r 1.20139 2 0 ack 40 ------- 0 2.0 0.0 14 43
+ 1.20139 0 2 tcp 1540 ------- 0 0.0 2.0 20 45
- 1.20139 0 2 tcp 1540 ------- 0 0.0 2.0 20 45
r 1.21139 0 2 tcp 1540 ------- 0 0.0 2.0 19 44
+ 1.21139 2 0 ack 40 ------- 0 2.0 0.0 14 46
- 1.21139 2 0 ack 40 ------- 0 2.0 0.0 14 46
r 1.211514 0 2 tcp 1540 ------- 0 0.0 2.0 20 45
+ 1.211514 2 0 ack 40 ------- 0 2.0 0.0 14 47
- 1.211514 2 0 ack 40 ------- 0 2.0 0.0 14 47
r 1.221394 2 0 ack 40 ------- 0 2.0 0.0 14 46
+ 1.221394 0 2 tcp 1540 ---A--- 0 0.0 2.0 15 48
- 1.221394 0 2 tcp 1540 ---A--- 0 0.0 2.0 15 48
r 1.221517 2 0 ack 40 ------- 0 2.0 0.0 14 47
r 1.231517 0 2 tcp 1540 ---A--- 0 0.0 2.0 15 48
+ 1.231517 2 0 ack 40 ------- 0 2.0 0.0 17 49
- 1.231517 2 0 ack 40 ------- 0 2.0 0.0 17 49
r 1.24152 2 0 ack 40 ------- 0 2.0 0.0 17 49
+ 1.24152 0 2 tcp 1540 ------- 0 0.0 2.0 18 50
- 1.24152 0 2 tcp 1540 ------- 0 0.0 2.0 18 50
+ 1.24152 0 2 tcp 1540 ------- 0 0.0 2.0 19 51
- 1.241643 0 2 tcp 1540 ------- 0 0.0 2.0 19 51
r 1.251643 0 2 tcp 1540 ------- 0 0.0 2.0 18 50
+ 1.251643 2 0 ack 40 ------- 0 2.0 0.0 20 52
- 1.251643 2 0 ack 40 ------- 0 2.0 0.0 20 52
r 1.251766 0 2 tcp 1540 ------- 0 0.0 2.0 19 51
+ 1.251766 2 0 ack 40 ------- 0 2.0 0.0 20 53
- 1.251766 2 0 ack 40 ------- 0 2.0 0.0 20 53
r 1.261646 2 0 ack 40 ------- 0 2.0 0.0 20 52
+ 1.261646 0 2 tcp 1540 ------- 0 0.0 2.0 21 54
- 1.261646 0 2 tcp 1540 ------- 0 0.0 2.0 21 54
+ 1.261646 0 2 tcp 1540 ------- 0 0.0 2.0 22 55
r 1.26177 2 0 ack 40 ------- 0 2.0 0.0 20 53
+ 1.26177 0 2 tcp 1540 ------- 0 0.0 2.0 23 56
d 1.26177 0 2 tcp 1540 ------- 0 0.0 2.0 23 56
- 1.26177 0 2 tcp 1540 ------- 0 0.0 2.0 22 55
r 1.27177 0 2 tcp 1540 ------- 0 0.0 2.0 21 54
+ 1.27177 2 0 ack 40 ------- 0 2.0 0.0 21 57
- 1.27177 2 0 ack 40 ------- 0 2.0 0.0 21 57
r 1.271893 0 2 tcp 1540 ------- 0 0.0 2.0 22 55
+ 1.271893 2 0 ack 40 ------- 0 2.0 0.0 22 58
- 1.271893 2 0 ack 40 ------- 0 2.0 0.0 22 58
r 1.281773 2 0 ack 40 ------- 0 2.0 0.0 21 57
r 1.281896 2 0 ack 40 ------- 0 2.0 0.0 22 58
+ 1.281896 0 2 tcp 1540 ------- 0 0.0 2.0 24 59
- 1.281896 0 2 tcp 1540 ------- 0 0.0 2.0 24 59
+ 1.281896 0 2 tcp 1540 ------- 0 0.0 2.0 25 60
- 1.282019 0 2 tcp 1540 ------- 0 0.0 2.0 25 60
r 1.292019 0 2 tcp 1540 ------- 0 0.0 2.0 24 59
+ 1.292019 2 0 ack 40 ------- 0 2.0 0.0 22 61
- 1.292019 2 0 ack 40 ------- 0 2.0 0.0 22 61
r 1.292142 0 2 tcp 1540 ------- 0 0.0 2.0 25 60
+ 1.292142 2 0 ack 40 ------- 0 2.0 0.0 22 62
- 1.292142 2 0 ack 40 ------- 0 2.0 0.0 22 62
r 1.302022 2 0 ack 40 ------- 0 2.0 0.0 22 61
+ 1.302022 0 2 tcp 1540 ------- 0 0.0 2.0 26 63
- 1.302022 0 2 tcp 1540 ------- 0 0.0 2.0 26 63
r 1.302146 2 0 ack 40 ------- 0 2.0 0.0 22 62
+ 1.302146 0 2 tcp 1540 ------- 0 0.0 2.0 27 64
- 1.302146 0 2 tcp 1540 ------- 0 0.0 2.0 27 64
r 1.312146 0 2 tcp 1540 ------- 0 0.0 2.0 26 63
+ 1.312146 2 0 ack 40 ------- 0 2.0 0.0 22 65
- 1.312146 2 0 ack 40 ------- 0 2.0 0.0 22 65
r 1.312269 0 2 tcp 1540 ------- 0 0.0 2.0 27 64
+ 1.312269 2 0 ack 40 ------- 0 2.0 0.0 22 66
- 1.312269 2 0 ack 40 ------- 0 2.0 0.0 22 66
r 1.322149 2 0 ack 40 ------- 0 2.0 0.0 22 65
+ 1.322149 0 2 tcp 1540 ---A--- 0 0.0 2.0 23 67
- 1.322149 0 2 tcp 1540 ---A--- 0 0.0 2.0 23 67
r 1.322272 2 0 ack 40 ------- 0 2.0 0.0 22 66
r 1.332272 0 2 tcp 1540 ---A--- 0 0.0 2.0 23 67
+ 1.332272 2 0 ack 40 ------- 0 2.0 0.0 27 68
- 1.332272 2 0 ack 40 ------- 0 2.0 0.0 27 68
r 1.342275 2 0 ack 40 ------- 0 2.0 0.0 27 68
+ 1.342275 0 2 tcp 1540 ------- 0 0.0 2.0 28 69
- 1.342275 0 2 tcp 1540 ------- 0 0.0 2.0 28 69
+ 1.342275 0 2 tcp 1540 ------- 0 0.0 2.0 29 70
- 1.342398 0 2 tcp 1540 ------- 0 0.0 2.0 29 70
r 1.352398 0 2 tcp 1540 ------- 0 0.0 2.0 28 69
+ 1.352398 2 0 ack 40 ------- 0 2.0 0.0 28 71
- 1.352398 2 0 ack 40 ------- 0 2.0 0.0 28 71
r 1.352522 0 2 tcp 1540 ------- 0 0.0 2.0 29 70
+ 1.352522 2 0 ack 40 ------- 0 2.0 0.0 29 72
- 1.352522 2 0 ack 40 ------- 0 2.0 0.0 29 72
r 1.362402 2 0 ack 40 ------- 0 2.0 0.0 28 71
+ 1.362402 0 2 tcp 1540 ------- 0 0.0 2.0 30 73
- 1.362402 0 2 tcp 1540 ------- 0 0.0 2.0 30 73
r 1.362525 2 0 ack 40 ------- 0 2.0 0.0 29 72
+ 1.362525 0 2 tcp 1540 ------- 0 0.0 2.0 31 74
- 1.362525 0 2 tcp 1540 ------- 0 0.0 2.0 31 74
r 1.372525 0 2 tcp 1540 ------- 0 0.0 2.0 30 73
+ 1.372525 2 0 ack 40 ------- 0 2.0 0.0 30 75
- 1.372525 2 0 ack 40 ------- 0 2.0 0.0 30 75
r 1.372648 0 2 tcp 1540 ------- 0 0.0 2.0 31 74
+ 1.372648 2 0 ack 40 ------- 0 2.0 0.0 31 76
- 1.372648 2 0 ack 40 ------- 0 2.0 0.0 31 76
r 1.382528 2 0 ack 40 ------- 0 2.0 0.0 30 75
+ 1.382528 0 2 tcp 1540 ------- 0 0.0 2.0 32 77
- 1.382528 0 2 tcp 1540 ------- 0 0.0 2.0 32 77
+ 1.382528 0 2 tcp 1540 ------- 0 0.0 2.0 33 78
r 1.382651 2 0 ack 40 ------- 0 2.0 0.0 31 76
+ 1.382651 0 2 tcp 1540 ------- 0 0.0 2.0 34 79
d 1.382651 0 2 tcp 1540 ------- 0 0.0 2.0 34 79
- 1.382651 0 2 tcp 1540 ------- 0 0.0 2.0 33 78
r 1.392651 0 2 tcp 1540 ------- 0 0.0 2.0 32 77
+ 1.392651 2 0 ack 40 ------- 0 2.0 0.0 32 80
- 1.392651 2 0 ack 40 ------- 0 2.0 0.0 32 80
r 1.392774 0 2 tcp 1540 ------- 0 0.0 2.0 33 78
+ 1.392774 2 0 ack 40 ------- 0 2.0 0.0 33 81
- 1.392774 2 0 ack 40 ------- 0 2.0 0.0 33 81
r 1.402654 2 0 ack 40 ------- 0 2.0 0.0 32 80
+ 1.402654 0 2 tcp 1540 ------- 0 0.0 2.0 35 82
- 1.402654 0 2 tcp 1540 ------- 0 0.0 2.0 35 82
r 1.402778 2 0 ack 40 ------- 0 2.0 0.0 33 81
+ 1.402778 0 2 tcp 1540 ------- 0 0.0 2.0 36 83
+ 1.402778 0 2 tcp 1540 ------- 0 0.0 2.0 37 84
d 1.402778 0 2 tcp 1540 ------- 0 0.0 2.0 37 84
- 1.402778 0 2 tcp 1540 ------- 0 0.0 2.0 36 83
r 1.412778 0 2 tcp 1540 ------- 0 0.0 2.0 35 82
+ 1.412778 2 0 ack 40 ------- 0 2.0 0.0 33 85
- 1.412778 2 0 ack 40 ------- 0 2.0 0.0 33 85
r 1.412901 0 2 tcp 1540 ------- 0 0.0 2.0 36 83
+ 1.412901 2 0 ack 40 ------- 0 2.0 0.0 33 86
- 1.412901 2 0 ack 40 ------- 0 2.0 0.0 33 86
r 1.422781 2 0 ack 40 ------- 0 2.0 0.0 33 85
+ 1.422781 0 2 tcp 1540 ------- 0 0.0 2.0 38 87
- 1.422781 0 2 tcp 1540 ------- 0 0.0 2.0 38 87
r 1.422904 2 0 ack 40 ------- 0 2.0 0.0 33 86
+ 1.422904 0 2 tcp 1540 ------- 0 0.0 2.0 39 88
- 1.422904 0 2 tcp 1540 ------- 0 0.0 2.0 39 88
r 1.432904 0 2 tcp 1540 ------- 0 0.0 2.0 38 87
+ 1.432904 2 0 ack 40 ------- 0 2.0 0.0 33 89
- 1.432904 2 0 ack 40 ------- 0 2.0 0.0 33 89
r 1.433027 0 2 tcp 1540 ------- 0 0.0 2.0 39 88
+ 1.433027 2 0 ack 40 ------- 0 2.0 0.0 33 90
- 1.433027 2 0 ack 40 ------- 0 2.0 0.0 33 90
r 1.442907 2 0 ack 40 ------- 0 2.0 0.0 33 89
+ 1.442907 0 2 tcp 1540 ---A--- 0 0.0 2.0 34 91
- 1.442907 0 2 tcp 1540 ---A--- 0 0.0 2.0 34 91
r 1.44303 2 0 ack 40 ------- 0 2.0 0.0 33 90
r 1.45303 0 2 tcp 1540 ---A--- 0 0.0 2.0 34 91
+ 1.45303 2 0 ack 40 ------- 0 2.0 0.0 36 92
- 1.45303 2 0 ack 40 ------- 0 2.0 0.0 36 92
r 1.463034 2 0 ack 40 ------- 0 2.0 0.0 36 92
+ 1.463034 0 2 tcp 1540 ------- 0 0.0 2.0 37 93
- 1.463034 0 2 tcp 1540 ------- 0 0.0 2.0 37 93
+ 1.463034 0 2 tcp 1540 ------- 0 0.0 2.0 38 94
- 1.463157 0 2 tcp 1540 ------- 0 0.0 2.0 38 94
r 1.473157 0 2 tcp 1540 ------- 0 0.0 2.0 37 93
+ 1.473157 2 0 ack 40 ------- 0 2.0 0.0 39 95
- 1.473157 2 0 ack 40 ------- 0 2.0 0.0 39 95
r 1.47328 0 2 tcp 1540 ------- 0 0.0 2.0 38 94
+ 1.47328 2 0 ack 40 ------- 0 2.0 0.0 39 96
- 1.47328 2 0 ack 40 ------- 0 2.0 0.0 39 96
r 1.48316 2 0 ack 40 ------- 0 2.0 0.0 39 95
+ 1.48316 0 2 tcp 1540 ------- 0 0.0 2.0 40 97
- 1.48316 0 2 tcp 1540 ------- 0 0.0 2.0 40 97
+ 1.48316 0 2 tcp 1540 ------- 0 0.0 2.0 41 98
r 1.483283 2 0 ack 40 ------- 0 2.0 0.0 39 96
+ 1.483283 0 2 tcp 1540 ------- 0 0.0 2.0 42 99
d 1.483283 0 2 tcp 1540 ------- 0 0.0 2.0 42 99
- 1.483283 0 2 tcp 1540 ------- 0 0.0 2.0 41 98
r 1.493283 0 2 tcp 1540 ------- 0 0.0 2.0 40 97
+ 1.493283 2 0 ack 40 ------- 0 2.0 0.0 40 100
- 1.493283 2 0 ack 40 ------- 0 2.0 0.0 40 100
r 1.493406 0 2 tcp 1540 ------- 0 0.0 2.0 41 98
+ 1.493406 2 0 ack 40 ------- 0 2.0 0.0 41 101
- 1.493406 2 0 ack 40 ------- 0 2.0 0.0 41 101
r 1.503286 2 0 ack 40 ------- 0 2.0 0.0 40 100
r 1.50341 2 0 ack 40 ------- 0 2.0 0.0 41 101
+ 1.50341 0 2 tcp 1540 ------- 0 0.0 2.0 43 102
- 1.50341 0 2 tcp 1540 ------- 0 0.0 2.0 43 102
+ 1.50341 0 2 tcp 1540 ------- 0 0.0 2.0 44 103
- 1.503533 0 2 tcp 1540 ------- 0 0.0 2.0 44 103
r 1.513533 0 2 tcp 1540 ------- 0 0.0 2.0 43 102
+ 1.513533 2 0 ack 40 ------- 0 2.0 0.0 41 104
- 1.513533 2 0 ack 40 ------- 0 2.0 0.0 41 104
r 1.513656 0 2 tcp 1540 ------- 0 0.0 2.0 44 103
+ 1.513656 2 0 ack 40 ------- 0 2.0 0.0 41 105
- 1.513656 2 0 ack 40 ------- 0 2.0 0.0 41 105
r 1.523536 2 0 ack 40 ------- 0 2.0 0.0 41 104
+ 1.523536 0 2 tcp 1540 ------- 0 0.0 2.0 45 106
- 1.523536 0 2 tcp 1540 ------- 0 0.0 2.0 45 106
r 1.523659 2 0 ack 40 ------- 0 2.0 0.0 41 105
+ 1.523659 0 2 tcp 1540 ------- 0 0.0 2.0 46 107
- 1.523659 0 2 tcp 1540 ------- 0 0.0 2.0 46 107
r 1.533659 0 2 tcp 1540 ------- 0 0.0 2.0 45 106
+ 1.533659 2 0 ack 40 ------- 0 2.0 0.0 41 108
- 1.533659 2 0 ack 40 ------- 0 2.0 0.0 41 108
r 1.533782 0 2 tcp 1540 ------- 0 0.0 2.0 46 107
+ 1.533782 2 0 ack 40 ------- 0 2.0 0.0 41 109
- 1.533782 2 0 ack 40 ------- 0 2.0 0.0 41 109
r 1.543662 2 0 ack 40 ------- 0 2.0 0.0 41 108
+ 1.543662 0 2 tcp 1540 ---A--- 0 0.0 2.0 42 110
- 1.543662 0 2 tcp 1540 ---A--- 0 0.0 2.0 42 110
r 1.543786 2 0 ack 40 ------- 0 2.0 0.0 41 109
r 1.553786 0 2 tcp 1540 ---A--- 0 0.0 2.0 42 110
+ 1.553786 2 0 ack 40 ------- 0 2.0 0.0 46 111
- 1.553786 2 0 ack 40 ------- 0 2.0 0.0 46 111
r 1.563789 2 0 ack 40 ------- 0 2.0 0.0 46 111
+ 1.563789 0 2 tcp 1540 ------- 0 0.0 2.0 47 112
- 1.563789 0 2 tcp 1540 ------- 0 0.0 2.0 47 112
+ 1.563789 0 2 tcp 1540 ------- 0 0.0 2.0 48 113
- 1.563912 0 2 tcp 1540 ------- 0 0.0 2.0 48 113
r 1.573912 0 2 tcp 1540 ------- 0 0.0 2.0 47 112
+ 1.573912 2 0 ack 40 ------- 0 2.0 0.0 47 114
- 1.573912 2 0 ack 40 ------- 0 2.0 0.0 47 114
r 1.574035 0 2 tcp 1540 ------- 0 0.0 2.0 48 113
+ 1.574035 2 0 ack 40 ------- 0 2.0 0.0 48 115
- 1.574035 2 0 ack 40 ------- 0 2.0 0.0 48 115
r 1.583915 2 0 ack 40 ------- 0 2.0 0.0 47 114
+ 1.583915 0 2 tcp 1540 ------- 0 0.0 2.0 49 116
- 1.583915 0 2 tcp 1540 ------- 0 0.0 2.0 49 116
r 1.584038 2 0 ack 40 ------- 0 2.0 0.0 48 115
+ 1.584038 0 2 tcp 1540 ------- 0 0.0 2.0 50 117
- 1.584038 0 2 tcp 1540 ------- 0 0.0 2.0 50 117
r 1.594038 0 2 tcp 1540 ------- 0 0.0 2.0 49 116
+ 1.594038 2 0 ack 40 ------- 0 2.0 0.0 49 118
- 1.594038 2 0 ack 40 ------- 0 2.0 0.0 49 118
r 1.594162 0 2 tcp 1540 ------- 0 0.0 2.0 50 117
+ 1.594162 2 0 ack 40 ------- 0 2.0 0.0 50 119
- 1.594162 2 0 ack 40 ------- 0 2.0 0.0 50 119
r 1.604042 2 0 ack 40 ------- 0 2.0 0.0 49 118
+ 1.604042 0 2 tcp 1540 ------- 0 0.0 2.0 51 120
- 1.604042 0 2 tcp 1540 ------- 0 0.0 2.0 51 120
+ 1.604042 0 2 tcp 1540 ------- 0 0.0 2.0 52 121
r 1.604165 2 0 ack 40 ------- 0 2.0 0.0 50 119
+ 1.604165 0 2 tcp 1540 ------- 0 0.0 2.0 53 122
d 1.604165 0 2 tcp 1540 ------- 0 0.0 2.0 53 122
- 1.604165 0 2 tcp 1540 ------- 0 0.0 2.0 52 121
r 1.614165 0 2 tcp 1540 ------- 0 0.0 2.0 51 120
+ 1.614165 2 0 ack 40 ------- 0 2.0 0.0 51 123
- 1.614165 2 0 ack 40 ------- 0 2.0 0.0 51 123
r 1.614288 0 2 tcp 1540 ------- 0 0.0 2.0 52 121
+ 1.614288 2 0 ack 40 ------- 0 2.0 0.0 52 124
- 1.614288 2 0 ack 40 ------- 0 2.0 0.0 52 124
r 1.624168 2 0 ack 40 ------- 0 2.0 0.0 51 123
+ 1.624168 0 2 tcp 1540 ------- 0 0.0 2.0 54 125
- 1.624168 0 2 tcp 1540 ------- 0 0.0 2.0 54 125
r 1.624291 2 0 ack 40 ------- 0 2.0 0.0 52 124
+ 1.624291 0 2 tcp 1540 ------- 0 0.0 2.0 55 126
+ 1.624291 0 2 tcp 1540 ------- 0 0.0 2.0 56 127
d 1.624291 0 2 tcp 1540 ------- 0 0.0 2.0 56 127
- 1.624291 0 2 tcp 1540 ------- 0 0.0 2.0 55 126
r 1.634291 0 2 tcp 1540 ------- 0 0.0 2.0 54 125
+ 1.634291 2 0 ack 40 ------- 0 2.0 0.0 52 128
- 1.634291 2 0 ack 40 ------- 0 2.0 0.0 52 128
r 1.634414 0 2 tcp 1540 ------- 0 0.0 2.0 55 126
+ 1.634414 2 0 ack 40 ------- 0 2.0 0.0 52 129
- 1.634414 2 0 ack 40 ------- 0 2.0 0.0 52 129
r 1.644294 2 0 ack 40 ------- 0 2.0 0.0 52 128
+ 1.644294 0 2 tcp 1540 ------- 0 0.0 2.0 57 130
- 1.644294 0 2 tcp 1540 ------- 0 0.0 2.0 57 130
r 1.644418 2 0 ack 40 ------- 0 2.0 0.0 52 129
+ 1.644418 0 2 tcp 1540 ------- 0 0.0 2.0 58 131
- 1.644418 0 2 tcp 1540 ------- 0 0.0 2.0 58 131
r 1.654418 0 2 tcp 1540 ------- 0 0.0 2.0 57 130
+ 1.654418 2 0 ack 40 ------- 0 2.0 0.0 52 132
- 1.654418 2 0 ack 40 ------- 0 2.0 0.0 52 132
r 1.654541 0 2 tcp 1540 ------- 0 0.0 2.0 58 131
+ 1.654541 2 0 ack 40 ------- 0 2.0 0.0 52 133
- 1.654541 2 0 ack 40 ------- 0 2.0 0.0 52 133
r 1.664421 2 0 ack 40 ------- 0 2.0 0.0 52 132
+ 1.664421 0 2 tcp 1540 ---A--- 0 0.0 2.0 53 134
- 1.664421 0 2 tcp 1540 ---A--- 0 0.0 2.0 53 134
r 1.664544 2 0 ack 40 ------- 0 2.0 0.0 52 133
r 1.674544 0 2 tcp 1540 ---A--- 0 0.0 2.0 53 134
+ 1.674544 2 0 ack 40 ------- 0 2.0 0.0 55 135
- 1.674544 2 0 ack 40 ------- 0 2.0 0.0 55 135
r 1.684547 2 0 ack 40 ------- 0 2.0 0.0 55 135
+ 1.684547 0 2 tcp 1540 ------- 0 0.0 2.0 56 136
- 1.684547 0 2 tcp 1540 ------- 0 0.0 2.0 56 136
+ 1.684547 0 2 tcp 1540 ------- 0 0.0 2.0 57 137
- 1.68467 0 2 tcp 1540 ------- 0 0.0 2.0 57 137
r 1.69467 0 2 tcp 1540 ------- 0 0.0 2.0 56 136
+ 1.69467 2 0 ack 40 ------- 0 2.0 0.0 58 138
- 1.69467 2 0 ack 40 ------- 0 2.0 0.0 58 138
r 1.694794 0 2 tcp 1540 ------- 0 0.0 2.0 57 137
+ 1.694794 2 0 ack 40 ------- 0 2.0 0.0 58 139
- 1.694794 2 0 ack 40 ------- 0 2.0 0.0 58 139
r 1.704674 2 0 ack 40 ------- 0 2.0 0.0 58 138
+ 1.704674 0 2 tcp 1540 ------- 0 0.0 2.0 59 140
- 1.704674 0 2 tcp 1540 ------- 0 0.0 2.0 59 140
+ 1.704674 0 2 tcp 1540 ------- 0 0.0 2.0 60 141
r 1.704797 2 0 ack 40 ------- 0 2.0 0.0 58 139
+ 1.704797 0 2 tcp 1540 ------- 0 0.0 2.0 61 142
d 1.704797 0 2 tcp 1540 ------- 0 0.0 2.0 61 142
- 1.704797 0 2 tcp 1540 ------- 0 0.0 2.0 60 141
r 1.714797 0 2 tcp 1540 ------- 0 0.0 2.0 59 140
+ 1.714797 2 0 ack 40 ------- 0 2.0 0.0 59 143
- 1.714797 2 0 ack 40 ------- 0 2.0 0.0 59 143
r 1.71492 0 2 tcp 1540 ------- 0 0.0 2.0 60 141
+ 1.71492 2 0 ack 40 ------- 0 2.0 0.0 60 144
- 1.71492 2 0 ack 40 ------- 0 2.0 0.0 60 144
r 1.7248 2 0 ack 40 ------- 0 2.0 0.0 59 143
r 1.724923 2 0 ack 40 ------- 0 2.0 0.0 60 144
+ 1.724923 0 2 tcp 1540 ------- 0 0.0 2.0 62 145
- 1.724923 0 2 tcp 1540 ------- 0 0.0 2.0 62 145
+ 1.724923 0 2 tcp 1540 ------- 0 0.0 2.0 63 146
- 1.725046 0 2 tcp 1540 ------- 0 0.0 2.0 63 146
r 1.735046 0 2 tcp 1540 ------- 0 0.0 2.0 62 145
+ 1.735046 2 0 ack 40 ------- 0 2.0 0.0 60 147
- 1.735046 2 0 ack 40 ------- 0 2.0 0.0 60 147
r 1.73517 0 2 tcp 1540 ------- 0 0.0 2.0 63 146
+ 1.73517 2 0 ack 40 ------- 0 2.0 0.0 60 148
- 1.73517 2 0 ack 40 ------- 0 2.0 0.0 60 148
r 1.74505 2 0 ack 40 ------- 0 2.0 0.0 60 147
+ 1.74505 0 2 tcp 1540 ------- 0 0.0 2.0 64 149
- 1.74505 0 2 tcp 1540 ------- 0 0.0 2.0 64 149
r 1.745173 2 0 ack 40 ------- 0 2.0 0.0 60 148
+ 1.745173 0 2 tcp 1540 ------- 0 0.0 2.0 65 150
- 1.745173 0 2 tcp 1540 ------- 0 0.0 2.0 65 150
r 1.755173 0 2 tcp 1540 ------- 0 0.0 2.0 64 149
+ 1.755173 2 0 ack 40 ------- 0 2.0 0.0 60 151
- 1.755173 2 0 ack 40 ------- 0 2.0 0.0 60 151
r 1.755296 0 2 tcp 1540 ------- 0 0.0 2.0 65 150
+ 1.755296 2 0 ack 40 ------- 0 2.0 0.0 60 152
- 1.755296 2 0 ack 40 ------- 0 2.0 0.0 60 152
r 1.765176 2 0 ack 40 ------- 0 2.0 0.0 60 151
+ 1.765176 0 2 tcp 1540 ---A--- 0 0.0 2.0 61 153
- 1.765176 0 2 tcp 1540 ---A--- 0 0.0 2.0 61 153
r 1.765299 2 0 ack 40 ------- 0 2.0 0.0 60 152
r 1.775299 0 2 tcp 1540 ---A--- 0 0.0 2.0 61 153
+ 1.775299 2 0 ack 40 ------- 0 2.0 0.0 65 154
- 1.775299 2 0 ack 40 ------- 0 2.0 0.0 65 154
r 1.785302 2 0 ack 40 ------- 0 2.0 0.0 65 154
+ 1.785302 0 2 tcp 1540 ------- 0 0.0 2.0 66 155
- 1.785302 0 2 tcp 1540 ------- 0 0.0 2.0 66 155
+ 1.785302 0 2 tcp 1540 ------- 0 0.0 2.0 67 156
- 1.785426 0 2 tcp 1540 ------- 0 0.0 2.0 67 156
r 1.795426 0 2 tcp 1540 ------- 0 0.0 2.0 66 155
+ 1.795426 2 0 ack 40 ------- 0 2.0 0.0 66 157
- 1.795426 2 0 ack 40 ------- 0 2.0 0.0 66 157
r 1.795549 0 2 tcp 1540 ------- 0 0.0 2.0 67 156
+ 1.795549 2 0 ack 40 ------- 0 2.0 0.0 67 158
- 1.795549 2 0 ack 40 ------- 0 2.0 0.0 67 158
r 1.805429 2 0 ack 40 ------- 0 2.0 0.0 66 157
+ 1.805429 0 2 tcp 1540 ------- 0 0.0 2.0 68 159
- 1.805429 0 2 tcp 1540 ------- 0 0.0 2.0 68 159
r 1.805552 2 0 ack 40 ------- 0 2.0 0.0 67 158
+ 1.805552 0 2 tcp 1540 ------- 0 0.0 2.0 69 160
- 1.805552 0 2 tcp 1540 ------- 0 0.0 2.0 69 160
r 1.815552 0 2 tcp 1540 ------- 0 0.0 2.0 68 159
+ 1.815552 2 0 ack 40 ------- 0 2.0 0.0 68 161
- 1.815552 2 0 ack 40 ------- 0 2.0 0.0 68 161
r 1.815675 0 2 tcp 1540 ------- 0 0.0 2.0 69 160
+ 1.815675 2 0 ack 40 ------- 0 2.0 0.0 69 162
- 1.815675 2 0 ack 40 ------- 0 2.0 0.0 69 162
r 1.825555 2 0 ack 40 ------- 0 2.0 0.0 68 161
+ 1.825555 0 2 tcp 1540 ------- 0 0.0 2.0 70 163
- 1.825555 0 2 tcp 1540 ------- 0 0.0 2.0 70 163
+ 1.825555 0 2 tcp 1540 ------- 0 0.0 2.0 71 164
r 1.825678 2 0 ack 40 ------- 0 2.0 0.0 69 162
+ 1.825678 0 2 tcp 1540 ------- 0 0.0 2.0 72 165
d 1.825678 0 2 tcp 1540 ------- 0 0.0 2.0 72 165
- 1.825678 0 2 tcp 1540 ------- 0 0.0 2.0 71 164
r 1.835678 0 2 tcp 1540 ------- 0 0.0 2.0 70 163
+ 1.835678 2 0 ack 40 ------- 0 2.0 0.0 70 166
- 1.835678 2 0 ack 40 ------- 0 2.0 0.0 70 166
r 1.835802 0 2 tcp 1540 ------- 0 0.0 2.0 71 164
+ 1.835802 2 0 ack 40 ------- 0 2.0 0.0 71 167
- 1.835802 2 0 ack 40 ------- 0 2.0 0.0 71 167
r 1.845682 2 0 ack 40 ------- 0 2.0 0.0 70 166
+ 1.845682 0 2 tcp 1540 ------- 0 0.0 2.0 73 168
- 1.845682 0 2 tcp 1540 ------- 0 0.0 2.0 73 168
r 1.845805 2 0 ack 40 ------- 0 2.0 0.0 71 167
+ 1.845805 0 2 tcp 1540 ------- 0 0.0 2.0 74 169
+ 1.845805 0 2 tcp 1540 ------- 0 0.0 2.0 75 170
d 1.845805 0 2 tcp 1540 ------- 0 0.0 2.0 75 170
- 1.845805 0 2 tcp 1540 ------- 0 0.0 2.0 74 169
r 1.855805 0 2 tcp 1540 ------- 0 0.0 2.0 73 168
+ 1.855805 2 0 ack 40 ------- 0 2.0 0.0 71 171
- 1.855805 2 0 ack 40 ------- 0 2.0 0.0 71 171
r 1.855928 0 2 tcp 1540 ------- 0 0.0 2.0 74 169
+ 1.855928 2 0 ack 40 ------- 0 2.0 0.0 71 172
- 1.855928 2 0 ack 40 ------- 0 2.0 0.0 71 172
r 1.865808 2 0 ack 40 ------- 0 2.0 0.0 71 171
+ 1.865808 0 2 tcp 1540 ------- 0 0.0 2.0 76 173
- 1.865808 0 2 tcp 1540 ------- 0 0.0 2.0 76 173
r 1.865931 2 0 ack 40 ------- 0 2.0 0.0 71 172
+ 1.865931 0 2 tcp 1540 ------- 0 0.0 2.0 77 174
- 1.865931 0 2 tcp 1540 ------- 0 0.0 2.0 77 174
r 1.875931 0 2 tcp 1540 ------- 0 0.0 2.0 76 173
+ 1.875931 2 0 ack 40 ------- 0 2.0 0.0 71 175
- 1.875931 2 0 ack 40 ------- 0 2.0 0.0 71 175
r 1.876054 0 2 tcp 1540 ------- 0 0.0 2.0 77 174
+ 1.876054 2 0 ack 40 ------- 0 2.0 0.0 71 176
- 1.876054 2 0 ack 40 ------- 0 2.0 0.0 71 176
r 1.885934 2 0 ack 40 ------- 0 2.0 0.0 71 175
+ 1.885934 0 2 tcp 1540 ---A--- 0 0.0 2.0 72 177
- 1.885934 0 2 tcp 1540 ---A--- 0 0.0 2.0 72 177
r 1.886058 2 0 ack 40 ------- 0 2.0 0.0 71 176
r 1.896058 0 2 tcp 1540 ---A--- 0 0.0 2.0 72 177
+ 1.896058 2 0 ack 40 ------- 0 2.0 0.0 74 178
- 1.896058 2 0 ack 40 ------- 0 2.0 0.0 74 178
r 1.906061 2 0 ack 40 ------- 0 2.0 0.0 74 178
+ 1.906061 0 2 tcp 1540 ------- 0 0.0 2.0 75 179
- 1.906061 0 2 tcp 1540 ------- 0 0.0 2.0 75 179
+ 1.906061 0 2 tcp 1540 ------- 0 0.0 2.0 76 180
- 1.906184 0 2 tcp 1540 ------- 0 0.0 2.0 76 180
r 1.916184 0 2 tcp 1540 ------- 0 0.0 2.0 75 179
+ 1.916184 2 0 ack 40 ------- 0 2.0 0.0 77 181
- 1.916184 2 0 ack 40 ------- 0 2.0 0.0 77 181
r 1.916307 0 2 tcp 1540 ------- 0 0.0 2.0 76 180
+ 1.916307 2 0 ack 40 ------- 0 2.0 0.0 77 182
- 1.916307 2 0 ack 40 ------- 0 2.0 0.0 77 182
r 1.926187 2 0 ack 40 ------- 0 2.0 0.0 77 181
+ 1.926187 0 2 tcp 1540 ------- 0 0.0 2.0 78 183
- 1.926187 0 2 tcp 1540 ------- 0 0.0 2.0 78 183
+ 1.926187 0 2 tcp 1540 ------- 0 0.0 2.0 79 184
r 1.92631 2 0 ack 40 ------- 0 2.0 0.0 77 182
+ 1.92631 0 2 tcp 1540 ------- 0 0.0 2.0 80 185
d 1.92631 0 2 tcp 1540 ------- 0 0.0 2.0 80 185
- 1.92631 0 2 tcp 1540 ------- 0 0.0 2.0 79 184
r 1.93631 0 2 tcp 1540 ------- 0 0.0 2.0 78 183
+ 1.93631 2 0 ack 40 ------- 0 2.0 0.0 78 186
- 1.93631 2 0 ack 40 ------- 0 2.0 0.0 78 186
r 1.936434 0 2 tcp 1540 ------- 0 0.0 2.0 79 184
+ 1.936434 2 0 ack 40 ------- 0 2.0 0.0 79 187
- 1.936434 2 0 ack 40 ------- 0 2.0 0.0 79 187
r 1.946314 2 0 ack 40 ------- 0 2.0 0.0 78 186
r 1.946437 2 0 ack 40 ------- 0 2.0 0.0 79 187
+ 1.946437 0 2 tcp 1540 ------- 0 0.0 2.0 81 188
- 1.946437 0 2 tcp 1540 ------- 0 0.0 2.0 81 188
+ 1.946437 0 2 tcp 1540 ------- 0 0.0 2.0 82 189
- 1.94656 0 2 tcp 1540 ------- 0 0.0 2.0 82 189
r 1.95656 0 2 tcp 1540 ------- 0 0.0 2.0 81 188
+ 1.95656 2 0 ack 40 ------- 0 2.0 0.0 79 190
- 1.95656 2 0 ack 40 ------- 0 2.0 0.0 79 190
r 1.956683 0 2 tcp 1540 ------- 0 0.0 2.0 82 189
+ 1.956683 2 0 ack 40 ------- 0 2.0 0.0 79 191
- 1.956683 2 0 ack 40 ------- 0 2.0 0.0 79 191
r 1.966563 2 0 ack 40 ------- 0 2.0 0.0 79 190
+ 1.966563 0 2 tcp 1540 ------- 0 0.0 2.0 83 192
- 1.966563 0 2 tcp 1540 ------- 0 0.0 2.0 83 192
r 1.966686 2 0 ack 40 ------- 0 2.0 0.0 79 191
+ 1.966686 0 2 tcp 1540 ------- 0 0.0 2.0 84 193
- 1.966686 0 2 tcp 1540 ------- 0 0.0 2.0 84 193
r 1.976686 0 2 tcp 1540 ------- 0 0.0 2.0 83 192
+ 1.976686 2 0 ack 40 ------- 0 2.0 0.0 79 194
- 1.976686 2 0 ack 40 ------- 0 2.0 0.0 79 194
r 1.97681 0 2 tcp 1540 ------- 0 0.0 2.0 84 193
+ 1.97681 2 0 ack 40 ------- 0 2.0 0.0 79 195
- 1.97681 2 0 ack 40 ------- 0 2.0 0.0 79 195
r 1.98669 2 0 ack 40 ------- 0 2.0 0.0 79 194
+ 1.98669 0 2 tcp 1540 ---A--- 0 0.0 2.0 80 196
- 1.98669 0 2 tcp 1540 ---A--- 0 0.0 2.0 80 196
r 1.986813 2 0 ack 40 ------- 0 2.0 0.0 79 195
r 1.996813 0 2 tcp 1540 ---A--- 0 0.0 2.0 80 196
+ 1.996813 2 0 ack 40 ------- 0 2.0 0.0 84 197
- 1.996813 2 0 ack 40 ------- 0 2.0 0.0 84 197
r 2.006816 2 0 ack 40 ------- 0 2.0 0.0 84 197
