V -t * -v 1.0a5 -a 0
A -t * -n 1 -p 0 -o 0x7fffffff -c 30 -a 1
A -t * -h 1 -m 1073741823 -s 0
n -t * -a 0 -s 0 -S UP -v circle -c black -i black
n -t * -a 1 -s 1 -S UP -v circle -c black -i black
n -t * -a 2 -s 2 -S UP -v circle -c black -i black
n -t * -a 3 -s 3 -S UP -v circle -c black -i black
l -t * -s 3 -d 0 -S UP -r 100000000 -D 0.01 -c black -o left-down
l -t * -s 0 -d 1 -S UP -r 100000000 -D 0.01 -c black -o right-down
l -t * -s 3 -d 2 -S UP -r 100000000 -D 0.01 -c black -o right-down
l -t * -s 1 -d 2 -S UP -r 100000000 -D 0.01 -c black -o right-up
l -t * -s 0 -d 2 -S UP -r 100000000 -D 0.01 -c black -o right
l -t * -s 1 -d 3 -S UP -r 100000000 -D 0.01 -c black -o right-up
+ -t 1 -s 0 -d 2 -p tcp -e 40 -c 0 -i 0 -a 0 -x {0.0 2.0 0 ------- null}
- -t 1 -s 0 -d 2 -p tcp -e 40 -c 0 -i 0 -a 0 -x {0.0 2.0 0 ------- null}
h -t 1 -s 0 -d 2 -p tcp -e 40 -c 0 -i 0 -a 0 -x {0.0 2.0 -1 ------- null}
r -t 1.0100032 -s 0 -d 2 -p tcp -e 40 -c 0 -i 0 -a 0 -x {0.0 2.0 0 ------- null}
+ -t 1.0100032 -s 2 -d 0 -p ack -e 40 -c 0 -i 1 -a 0 -x {2.0 0.0 0 ------- null}
- -t 1.0100032 -s 2 -d 0 -p ack -e 40 -c 0 -i 1 -a 0 -x {2.0 0.0 0 ------- null}
h -t 1.0100032 -s 2 -d 0 -p ack -e 40 -c 0 -i 1 -a 0 -x {2.0 0.0 -1 ------- null}
r -t 1.0200064 -s 2 -d 0 -p ack -e 40 -c 0 -i 1 -a 0 -x {2.0 0.0 0 ------- null}
+ -t 1.0200064 -s 0 -d 2 -p tcp -e 1540 -c 0 -i 2 -a 0 -x {0.0 2.0 1 ------- null}
- -t 1.0200064 -s 0 -d 2 -p tcp -e 1540 -c 0 -i 2 -a 0 -x {0.0 2.0 1 ------- null}
h -t 1.0200064 -s 0 -d 2 -p tcp -e 1540 -c 0 -i 2 -a 0 -x {0.0 2.0 -1 ------- null}
+ -t 1.0200064 -s 0 -d 2 -p tcp -e 1540 -c 0 -i 3 -a 0 -x {0.0 2.0 2 ------- null}
- -t 1.0201296 -s 0 -d 2 -p tcp -e 1540 -c 0 -i 3 -a 0 -x {0.0 2.0 2 ------- null}
h -t 1.0201296 -s 0 -d 2 -p tcp -e 1540 -c 0 -i 3 -a 0 -x {0.0 2.0 -1 ------- null}
r -t 1.0301296 -s 0 -d 2 -p tcp -e 1540 -c 0 -i 2 -a 0 -x {0.0 2.0 1 ------- null}
+ -t 1.0301296 -s 2 -d 0 -p ack -e 40 -c 0 -i 4 -a 0 -x {2.0 0.0 1 ------- null}
- -t 1.0301296 -s 2 -d 0 -p ack -e 40 -c 0 -i 4 -a 0 -x {2.0 0.0 1 ------- null}
h -t 1.0301296 -s 2 -d 0 -p ack -e 40 -c 0 -i 4 -a 0 -x {2.0 0.0 -1 ------- null}
r -t 1.0302528 -s 0 -d 2 -p tcp -e 1540 -c 0 -i 3 -a 0 -x {0.0 2.0 2 ------- null}
+ -t 1.0302528 -s 2 -d 0 -p ack -e 40 -c 0 -i 5 -a 0 -x {2.0 0.0 2 ------- null}
- -t 1.0302528 -s 2 -d 0 -p ack -e 40 -c 0 -i 5 -a 0 -x {2.0 0.0 2 ------- null}
h -t 1.0302528 -s 2 -d 0 -p ack -e 40 -c 0 -i 5 -a 0 -x {2.0 0.0 -1 ------- null}
r -t 1.0401328 -s 2 -d 0 -p ack -e 40 -c 0 -i 4 -a 0 -x {2.0 0.0 1 ------- null}
+ -t 1.0401328 -s 0 -d 2 -p tcp -e 1540 -c 0 -i 6 -a 0 -x {0.0 2.0 3 ------- null}
- -t 1.0401328 -s 0 -d 2 -p tcp -e 1540 -c 0 -i 6 -a 0 -x {0.0 2.0 3 ------- null}
h -t 1.0401328 -s 0 -d 2 -p tcp -e 1540 -c 0 -i 6 -a 0 -x {0.0 2.0 -1 ------- null}
+ -t 1.0401328 -s 0 -d 2 -p tcp -e 1540 -c 0 -i 7 -a 0 -x {0.0 2.0 4 ------- null}
r -t 1.040256 -s 2 -d 0 -p ack -e 40 -c 0 -i 5 -a 0 -x {2.0 0.0 2 ------- null}
+ -t 1.040256 -s 0 -d 2 -p tcp -e 1540 -c 0 -i 8 -a 0 -x {0.0 2.0 5 ------- null}
d -t 1.040256 -s 0 -d 2 -p tcp -e 1540 -c 0 -i 8 -a 0 -x {0.0 2.0 5 ------- null}
+ -t 1.040256 -s 0 -d 2 -p tcp -e 1540 -c 0 -i 9 -a 0 -x {0.0 2.0 6 ------- null}
d -t 1.040256 -s 0 -d 2 -p tcp -e 1540 -c 0 -i 9 -a 0 -x {0.0 2.0 6 ------- null}
- -t 1.040256 -s 0 -d 2 -p tcp -e 1540 -c 0 -i 7 -a 0 -x {0.0 2.0 4 ------- null}
h -t 1.040256 -s 0 -d 2 -p tcp -e 1540 -c 0 -i 7 -a 0 -x {0.0 2.0 -1 ------- null}
r -t 1.050256 -s 0 -d 2 -p tcp -e 1540 -c 0 -i 6 -a 0 -x {0.0 2.0 3 ------- null}
+ -t 1.050256 -s 2 -d 0 -p ack -e 40 -c 0 -i 10 -a 0 -x {2.0 0.0 3 ------- null}
- -t 1.050256 -s 2 -d 0 -p ack -e 40 -c 0 -i 10 -a 0 -x {2.0 0.0 3 ------- null}
h -t 1.050256 -s 2 -d 0 -p ack -e 40 -c 0 -i 10 -a 0 -x {2.0 0.0 -1 ------- null}
r -t 1.0503792 -s 0 -d 2 -p tcp -e 1540 -c 0 -i 7 -a 0 -x {0.0 2.0 4 ------- null}
+ -t 1.0503792 -s 2 -d 0 -p ack -e 40 -c 0 -i 11 -a 0 -x {2.0 0.0 4 ------- null}
- -t 1.0503792 -s 2 -d 0 -p ack -e 40 -c 0 -i 11 -a 0 -x {2.0 0.0 4 ------- null}
h -t 1.0503792 -s 2 -d 0 -p ack -e 40 -c 0 -i 11 -a 0 -x {2.0 0.0 -1 ------- null}
r -t 1.0602592 -s 2 -d 0 -p ack -e 40 -c 0 -i 10 -a 0 -x {2.0 0.0 3 ------- null}
+ -t 1.0602592 -s 0 -d 2 -p tcp -e 1540 -c 0 -i 12 -a 0 -x {0.0 2.0 7 ------- null}
- -t 1.0602592 -s 0 -d 2 -p tcp -e 1540 -c 0 -i 12 -a 0 -x {0.0 2.0 7 ------- null}
h -t 1.0602592 -s 0 -d 2 -p tcp -e 1540 -c 0 -i 12 -a 0 -x {0.0 2.0 -1 ------- null}
+ -t 1.0602592 -s 0 -d 2 -p tcp -e 1540 -c 0 -i 13 -a 0 -x {0.0 2.0 8 ------- null}
r -t 1.0603824 -s 2 -d 0 -p ack -e 40 -c 0 -i 11 -a 0 -x {2.0 0.0 4 ------- null}
+ -t 1.0603824 -s 0 -d 2 -p tcp -e 1540 -c 0 -i 14 -a 0 -x {0.0 2.0 9 ------- null}
d -t 1.0603824 -s 0 -d 2 -p tcp -e 1540 -c 0 -i 14 -a 0 -x {0.0 2.0 9 ------- null}
+ -t 1.0603824 -s 0 -d 2 -p tcp -e 1540 -c 0 -i 15 -a 0 -x {0.0 2.0 10 ------- null}
d -t 1.0603824 -s 0 -d 2 -p tcp -e 1540 -c 0 -i 15 -a 0 -x {0.0 2.0 10 ------- null}
- -t 1.0603824 -s 0 -d 2 -p tcp -e 1540 -c 0 -i 13 -a 0 -x {0.0 2.0 8 ------- null}
h -t 1.0603824 -s 0 -d 2 -p tcp -e 1540 -c 0 -i 13 -a 0 -x {0.0 2.0 -1 ------- null}
r -t 1.0703824 -s 0 -d 2 -p tcp -e 1540 -c 0 -i 12 -a 0 -x {0.0 2.0 7 ------- null}
+ -t 1.0703824 -s 2 -d 0 -p ack -e 40 -c 0 -i 16 -a 0 -x {2.0 0.0 4 ------- null}
- -t 1.0703824 -s 2 -d 0 -p ack -e 40 -c 0 -i 16 -a 0 -x {2.0 0.0 4 ------- null}
h -t 1.0703824 -s 2 -d 0 -p ack -e 40 -c 0 -i 16 -a 0 -x {2.0 0.0 -1 ------- null}
r -t 1.0705056 -s 0 -d 2 -p tcp -e 1540 -c 0 -i 13 -a 0 -x {0.0 2.0 8 ------- null}
+ -t 1.0705056 -s 2 -d 0 -p ack -e 40 -c 0 -i 17 -a 0 -x {2.0 0.0 4 ------- null}
- -t 1.0705056 -s 2 -d 0 -p ack -e 40 -c 0 -i 17 -a 0 -x {2.0 0.0 4 ------- null}
h -t 1.0705056 -s 2 -d 0 -p ack -e 40 -c 0 -i 17 -a 0 -x {2.0 0.0 -1 ------- null}
r -t 1.0803856 -s 2 -d 0 -p ack -e 40 -c 0 -i 16 -a 0 -x {2.0 0.0 4 ------- null}
+ -t 1.0803856 -s 0 -d 2 -p tcp -e 1540 -c 0 -i 18 -a 0 -x {0.0 2.0 11 ------- null}
- -t 1.0803856 -s 0 -d 2 -p tcp -e 1540 -c 0 -i 18 -a 0 -x {0.0 2.0 11 ------- null}
h -t 1.0803856 -s 0 -d 2 -p tcp -e 1540 -c 0 -i 18 -a 0 -x {0.0 2.0 -1 ------- null}
r -t 1.0805088 -s 2 -d 0 -p ack -e 40 -c 0 -i 17 -a 0 -x {2.0 0.0 4 ------- null}
+ -t 1.0805088 -s 0 -d 2 -p tcp -e 1540 -c 0 -i 19 -a 0 -x {0.0 2.0 12 ------- null}
- -t 1.0805088 -s 0 -d 2 -p tcp -e 1540 -c 0 -i 19 -a 0 -x {0.0 2.0 12 ------- null}
h -t 1.0805088 -s 0 -d 2 -p tcp -e 1540 -c 0 -i 19 -a 0 -x {0.0 2.0 -1 ------- null}
r -t 1.0905088 -s 0 -d 2 -p tcp -e 1540 -c 0 -i 18 -a 0 -x {0.0 2.0 11 ------- null}
+ -t 1.0905088 -s 2 -d 0 -p ack -e 40 -c 0 -i 20 -a 0 -x {2.0 0.0 4 ------- null}
- -t 1.0905088 -s 2 -d 0 -p ack -e 40 -c 0 -i 20 -a 0 -x {2.0 0.0 4 ------- null}
h -t 1.0905088 -s 2 -d 0 -p ack -e 40 -c 0 -i 20 -a 0 -x {2.0 0.0 -1 ------- null}
r -t 1.090632 -s 0 -d 2 -p tcp -e 1540 -c 0 -i 19 -a 0 -x {0.0 2.0 12 ------- null}
+ -t 1.090632 -s 2 -d 0 -p ack -e 40 -c 0 -i 21 -a 0 -x {2.0 0.0 4 ------- null}
- -t 1.090632 -s 2 -d 0 -p ack -e 40 -c 0 -i 21 -a 0 -x {2.0 0.0 4 ------- null}
h -t 1.090632 -s 2 -d 0 -p ack -e 40 -c 0 -i 21 -a 0 -x {2.0 0.0 -1 ------- null}
r -t 1.100512 -s 2 -d 0 -p ack -e 40 -c 0 -i 20 -a 0 -x {2.0 0.0 4 ------- null}
+ -t 1.100512 -s 0 -d 2 -p tcp -e 1540 -c 0 -i 22 -a 0 -x {0.0 2.0 5 ---A--- null}
- -t 1.100512 -s 0 -d 2 -p tcp -e 1540 -c 0 -i 22 -a 0 -x {0.0 2.0 5 ---A--- null}
h -t 1.100512 -s 0 -d 2 -p tcp -e 1540 -c 0 -i 22 -a 0 -x {0.0 2.0 -1 ---A--- null}
r -t 1.1006352 -s 2 -d 0 -p ack -e 40 -c 0 -i 21 -a 0 -x {2.0 0.0 4 ------- null}
r -t 1.1106352 -s 0 -d 2 -p tcp -e 1540 -c 0 -i 22 -a 0 -x {0.0 2.0 5 ---A--- null}
+ -t 1.1106352 -s 2 -d 0 -p ack -e 40 -c 0 -i 23 -a 0 -x {2.0 0.0 5 ------- null}
- -t 1.1106352 -s 2 -d 0 -p ack -e 40 -c 0 -i 23 -a 0 -x {2.0 0.0 5 ------- null}
h -t 1.1106352 -s 2 -d 0 -p ack -e 40 -c 0 -i 23 -a 0 -x {2.0 0.0 -1 ------- null}
r -t 1.1206384 -s 2 -d 0 -p ack -e 40 -c 0 -i 23 -a 0 -x {2.0 0.0 5 ------- null}
+ -t 1.1206384 -s 0 -d 2 -p tcp -e 1540 -c 0 -i 24 -a 0 -x {0.0 2.0 6 ------- null}
- -t 1.1206384 -s 0 -d 2 -p tcp -e 1540 -c 0 -i 24 -a 0 -x {0.0 2.0 6 ------- null}
h -t 1.1206384 -s 0 -d 2 -p tcp -e 1540 -c 0 -i 24 -a 0 -x {0.0 2.0 -1 ------- null}
+ -t 1.1206384 -s 0 -d 2 -p tcp -e 1540 -c 0 -i 25 -a 0 -x {0.0 2.0 7 ------- null}
- -t 1.1207616 -s 0 -d 2 -p tcp -e 1540 -c 0 -i 25 -a 0 -x {0.0 2.0 7 ------- null}
h -t 1.1207616 -s 0 -d 2 -p tcp -e 1540 -c 0 -i 25 -a 0 -x {0.0 2.0 -1 ------- null}
r -t 1.1307616 -s 0 -d 2 -p tcp -e 1540 -c 0 -i 24 -a 0 -x {0.0 2.0 6 ------- null}
+ -t 1.1307616 -s 2 -d 0 -p ack -e 40 -c 0 -i 26 -a 0 -x {2.0 0.0 8 ------- null}
- -t 1.1307616 -s 2 -d 0 -p ack -e 40 -c 0 -i 26 -a 0 -x {2.0 0.0 8 ------- null}
h -t 1.1307616 -s 2 -d 0 -p ack -e 40 -c 0 -i 26 -a 0 -x {2.0 0.0 -1 ------- null}
r -t 1.1308848 -s 0 -d 2 -p tcp -e 1540 -c 0 -i 25 -a 0 -x {0.0 2.0 7 ------- null}
+ -t 1.1308848 -s 2 -d 0 -p ack -e 40 -c 0 -i 27 -a 0 -x {2.0 0.0 8 ------- null}
- -t 1.1308848 -s 2 -d 0 -p ack -e 40 -c 0 -i 27 -a 0 -x {2.0 0.0 8 ------- null}
h -t 1.1308848 -s 2 -d 0 -p ack -e 40 -c 0 -i 27 -a 0 -x {2.0 0.0 -1 ------- null}
r -t 1.1407648 -s 2 -d 0 -p ack -e 40 -c 0 -i 26 -a 0 -x {2.0 0.0 8 ------- null}
+ -t 1.1407648 -s 0 -d 2 -p tcp -e 1540 -c 0 -i 28 -a 0 -x {0.0 2.0 9 ------- null}
- -t 1.1407648 -s 0 -d 2 -p tcp -e 1540 -c 0 -i 28 -a 0 -x {0.0 2.0 9 ------- null}
h -t 1.1407648 -s 0 -d 2 -p tcp -e 1540 -c 0 -i 28 -a 0 -x {0.0 2.0 -1 ------- null}
+ -t 1.1407648 -s 0 -d 2 -p tcp -e 1540 -c 0 -i 29 -a 0 -x {0.0 2.0 10 ------- null}
+ -t 1.1407648 -s 0 -d 2 -p tcp -e 1540 -c 0 -i 30 -a 0 -x {0.0 2.0 11 ------- null}
d -t 1.1407648 -s 0 -d 2 -p tcp -e 1540 -c 0 -i 30 -a 0 -x {0.0 2.0 11 ------- null}
r -t 1.140888 -s 2 -d 0 -p ack -e 40 -c 0 -i 27 -a 0 -x {2.0 0.0 8 ------- null}
+ -t 1.140888 -s 0 -d 2 -p tcp -e 1540 -c 0 -i 31 -a 0 -x {0.0 2.0 12 ------- null}
d -t 1.140888 -s 0 -d 2 -p tcp -e 1540 -c 0 -i 31 -a 0 -x {0.0 2.0 12 ------- null}
- -t 1.140888 -s 0 -d 2 -p tcp -e 1540 -c 0 -i 29 -a 0 -x {0.0 2.0 10 ------- null}
h -t 1.140888 -s 0 -d 2 -p tcp -e 1540 -c 0 -i 29 -a 0 -x {0.0 2.0 -1 ------- null}
r -t 1.150888 -s 0 -d 2 -p tcp -e 1540 -c 0 -i 28 -a 0 -x {0.0 2.0 9 ------- null}
+ -t 1.150888 -s 2 -d 0 -p ack -e 40 -c 0 -i 32 -a 0 -x {2.0 0.0 9 ------- null}
- -t 1.150888 -s 2 -d 0 -p ack -e 40 -c 0 -i 32 -a 0 -x {2.0 0.0 9 ------- null}
h -t 1.150888 -s 2 -d 0 -p ack -e 40 -c 0 -i 32 -a 0 -x {2.0 0.0 -1 ------- null}
r -t 1.1510112 -s 0 -d 2 -p tcp -e 1540 -c 0 -i 29 -a 0 -x {0.0 2.0 10 ------- null}
+ -t 1.1510112 -s 2 -d 0 -p ack -e 40 -c 0 -i 33 -a 0 -x {2.0 0.0 12 ------- null}
- -t 1.1510112 -s 2 -d 0 -p ack -e 40 -c 0 -i 33 -a 0 -x {2.0 0.0 12 ------- null}
h -t 1.1510112 -s 2 -d 0 -p ack -e 40 -c 0 -i 33 -a 0 -x {2.0 0.0 -1 ------- null}
r -t 1.1608912 -s 2 -d 0 -p ack -e 40 -c 0 -i 32 -a 0 -x {2.0 0.0 9 ------- null}
r -t 1.1610144 -s 2 -d 0 -p ack -e 40 -c 0 -i 33 -a 0 -x {2.0 0.0 12 ------- null}
+ -t 1.1610144 -s 0 -d 2 -p tcp -e 1540 -c 0 -i 34 -a 0 -x {0.0 2.0 13 ------- null}
- -t 1.1610144 -s 0 -d 2 -p tcp -e 1540 -c 0 -i 34 -a 0 -x {0.0 2.0 13 ------- null}
h -t 1.1610144 -s 0 -d 2 -p tcp -e 1540 -c 0 -i 34 -a 0 -x {0.0 2.0 -1 ------- null}
+ -t 1.1610144 -s 0 -d 2 -p tcp -e 1540 -c 0 -i 35 -a 0 -x {0.0 2.0 14 ------- null}
+ -t 1.1610144 -s 0 -d 2 -p tcp -e 1540 -c 0 -i 36 -a 0 -x {0.0 2.0 15 ------- null}
d -t 1.1610144 -s 0 -d 2 -p tcp -e 1540 -c 0 -i 36 -a 0 -x {0.0 2.0 15 ------- null}
- -t 1.1611376 -s 0 -d 2 -p tcp -e 1540 -c 0 -i 35 -a 0 -x {0.0 2.0 14 ------- null}
h -t 1.1611376 -s 0 -d 2 -p tcp -e 1540 -c 0 -i 35 -a 0 -x {0.0 2.0 -1 ------- null}
r -t 1.1711376 -s 0 -d 2 -p tcp -e 1540 -c 0 -i 34 -a 0 -x {0.0 2.0 13 ------- null}
+ -t 1.1711376 -s 2 -d 0 -p ack -e 40 -c 0 -i 37 -a 0 -x {2.0 0.0 13 ------- null}
- -t 1.1711376 -s 2 -d 0 -p ack -e 40 -c 0 -i 37 -a 0 -x {2.0 0.0 13 ------- null}
h -t 1.1711376 -s 2 -d 0 -p ack -e 40 -c 0 -i 37 -a 0 -x {2.0 0.0 -1 ------- null}
r -t 1.1712608 -s 0 -d 2 -p tcp -e 1540 -c 0 -i 35 -a 0 -x {0.0 2.0 14 ------- null}
+ -t 1.1712608 -s 2 -d 0 -p ack -e 40 -c 0 -i 38 -a 0 -x {2.0 0.0 14 ------- null}
- -t 1.1712608 -s 2 -d 0 -p ack -e 40 -c 0 -i 38 -a 0 -x {2.0 0.0 14 ------- null}
h -t 1.1712608 -s 2 -d 0 -p ack -e 40 -c 0 -i 38 -a 0 -x {2.0 0.0 -1 ------- null}
r -t 1.1811408 -s 2 -d 0 -p ack -e 40 -c 0 -i 37 -a 0 -x {2.0 0.0 13 ------- null}
+ -t 1.1811408 -s 0 -d 2 -p tcp -e 1540 -c 0 -i 39 -a 0 -x {0.0 2.0 16 ------- null}
- -t 1.1811408 -s 0 -d 2 -p tcp -e 1540 -c 0 -i 39 -a 0 -x {0.0 2.0 16 ------- null}
h -t 1.1811408 -s 0 -d 2 -p tcp -e 1540 -c 0 -i 39 -a 0 -x {0.0 2.0 -1 ------- null}
r -t 1.181264 -s 2 -d 0 -p ack -e 40 -c 0 -i 38 -a 0 -x {2.0 0.0 14 ------- null}
+ -t 1.181264 -s 0 -d 2 -p tcp -e 1540 -c 0 -i 40 -a 0 -x {0.0 2.0 17 ------- null}
+ -t 1.181264 -s 0 -d 2 -p tcp -e 1540 -c 0 -i 41 -a 0 -x {0.0 2.0 18 ------- null}
d -t 1.181264 -s 0 -d 2 -p tcp -e 1540 -c 0 -i 41 -a 0 -x {0.0 2.0 18 ------- null}
- -t 1.181264 -s 0 -d 2 -p tcp -e 1540 -c 0 -i 40 -a 0 -x {0.0 2.0 17 ------- null}
h -t 1.181264 -s 0 -d 2 -p tcp -e 1540 -c 0 -i 40 -a 0 -x {0.0 2.0 -1 ------- null}
r -t 1.191264 -s 0 -d 2 -p tcp -e 1540 -c 0 -i 39 -a 0 -x {0.0 2.0 16 ------- null}
+ -t 1.191264 -s 2 -d 0 -p ack -e 40 -c 0 -i 42 -a 0 -x {2.0 0.0 14 ------- null}
- -t 1.191264 -s 2 -d 0 -p ack -e 40 -c 0 -i 42 -a 0 -x {2.0 0.0 14 ------- null}
h -t 1.191264 -s 2 -d 0 -p ack -e 40 -c 0 -i 42 -a 0 -x {2.0 0.0 -1 ------- null}
r -t 1.1913872 -s 0 -d 2 -p tcp -e 1540 -c 0 -i 40 -a 0 -x {0.0 2.0 17 ------- null}
+ -t 1.1913872 -s 2 -d 0 -p ack -e 40 -c 0 -i 43 -a 0 -x {2.0 0.0 14 ------- null}
- -t 1.1913872 -s 2 -d 0 -p ack -e 40 -c 0 -i 43 -a 0 -x {2.0 0.0 14 ------- null}
h -t 1.1913872 -s 2 -d 0 -p ack -e 40 -c 0 -i 43 -a 0 -x {2.0 0.0 -1 ------- null}
r -t 1.2012672 -s 2 -d 0 -p ack -e 40 -c 0 -i 42 -a 0 -x {2.0 0.0 14 ------- null}
+ -t 1.2012672 -s 0 -d 2 -p tcp -e 1540 -c 0 -i 44 -a 0 -x {0.0 2.0 19 ------- null}
- -t 1.2012672 -s 0 -d 2 -p tcp -e 1540 -c 0 -i 44 -a 0 -x {0.0 2.0 19 ------- null}
h -t 1.2012672 -s 0 -d 2 -p tcp -e 1540 -c 0 -i 44 -a 0 -x {0.0 2.0 -1 ------- null}
r -t 1.2013904 -s 2 -d 0 -p ack -e 40 -c 0 -i 43 -a 0 -x {2.0 0.0 14 ------- null}
+ -t 1.2013904 -s 0 -d 2 -p tcp -e 1540 -c 0 -i 45 -a 0 -x {0.0 2.0 20 ------- null}
- -t 1.2013904 -s 0 -d 2 -p tcp -e 1540 -c 0 -i 45 -a 0 -x {0.0 2.0 20 ------- null}
h -t 1.2013904 -s 0 -d 2 -p tcp -e 1540 -c 0 -i 45 -a 0 -x {0.0 2.0 -1 ------- null}
r -t 1.2113904 -s 0 -d 2 -p tcp -e 1540 -c 0 -i 44 -a 0 -x {0.0 2.0 19 ------- null}
+ -t 1.2113904 -s 2 -d 0 -p ack -e 40 -c 0 -i 46 -a 0 -x {2.0 0.0 14 ------- null}
- -t 1.2113904 -s 2 -d 0 -p ack -e 40 -c 0 -i 46 -a 0 -x {2.0 0.0 14 ------- null}
h -t 1.2113904 -s 2 -d 0 -p ack -e 40 -c 0 -i 46 -a 0 -x {2.0 0.0 -1 ------- null}
r -t 1.2115136 -s 0 -d 2 -p tcp -e 1540 -c 0 -i 45 -a 0 -x {0.0 2.0 20 ------- null}
+ -t 1.2115136 -s 2 -d 0 -p ack -e 40 -c 0 -i 47 -a 0 -x {2.0 0.0 14 ------- null}
- -t 1.2115136 -s 2 -d 0 -p ack -e 40 -c 0 -i 47 -a 0 -x {2.0 0.0 14 ------- null}
h -t 1.2115136 -s 2 -d 0 -p ack -e 40 -c 0 -i 47 -a 0 -x {2.0 0.0 -1 ------- null}
r -t 1.2213936 -s 2 -d 0 -p ack -e 40 -c 0 -i 46 -a 0 -x {2.0 0.0 14 ------- null}
+ -t 1.2213936 -s 0 -d 2 -p tcp -e 1540 -c 0 -i 48 -a 0 -x {0.0 2.0 15 ---A--- null}
- -t 1.2213936 -s 0 -d 2 -p tcp -e 1540 -c 0 -i 48 -a 0 -x {0.0 2.0 15 ---A--- null}
h -t 1.2213936 -s 0 -d 2 -p tcp -e 1540 -c 0 -i 48 -a 0 -x {0.0 2.0 -1 ---A--- null}
r -t 1.2215168 -s 2 -d 0 -p ack -e 40 -c 0 -i 47 -a 0 -x {2.0 0.0 14 ------- null}
r -t 1.2315168 -s 0 -d 2 -p tcp -e 1540 -c 0 -i 48 -a 0 -x {0.0 2.0 15 ---A--- null}
+ -t 1.2315168 -s 2 -d 0 -p ack -e 40 -c 0 -i 49 -a 0 -x {2.0 0.0 17 ------- null}
- -t 1.2315168 -s 2 -d 0 -p ack -e 40 -c 0 -i 49 -a 0 -x {2.0 0.0 17 ------- null}
h -t 1.2315168 -s 2 -d 0 -p ack -e 40 -c 0 -i 49 -a 0 -x {2.0 0.0 -1 ------- null}
r -t 1.24152 -s 2 -d 0 -p ack -e 40 -c 0 -i 49 -a 0 -x {2.0 0.0 17 ------- null}
+ -t 1.24152 -s 0 -d 2 -p tcp -e 1540 -c 0 -i 50 -a 0 -x {0.0 2.0 18 ------- null}
- -t 1.24152 -s 0 -d 2 -p tcp -e 1540 -c 0 -i 50 -a 0 -x {0.0 2.0 18 ------- null}
h -t 1.24152 -s 0 -d 2 -p tcp -e 1540 -c 0 -i 50 -a 0 -x {0.0 2.0 -1 ------- null}
+ -t 1.24152 -s 0 -d 2 -p tcp -e 1540 -c 0 -i 51 -a 0 -x {0.0 2.0 19 ------- null}
- -t 1.2416432 -s 0 -d 2 -p tcp -e 1540 -c 0 -i 51 -a 0 -x {0.0 2.0 19 ------- null}
h -t 1.2416432 -s 0 -d 2 -p tcp -e 1540 -c 0 -i 51 -a 0 -x {0.0 2.0 -1 ------- null}
r -t 1.2516432 -s 0 -d 2 -p tcp -e 1540 -c 0 -i 50 -a 0 -x {0.0 2.0 18 ------- null}
+ -t 1.2516432 -s 2 -d 0 -p ack -e 40 -c 0 -i 52 -a 0 -x {2.0 0.0 20 ------- null}
- -t 1.2516432 -s 2 -d 0 -p ack -e 40 -c 0 -i 52 -a 0 -x {2.0 0.0 20 ------- null}
h -t 1.2516432 -s 2 -d 0 -p ack -e 40 -c 0 -i 52 -a 0 -x {2.0 0.0 -1 ------- null}
r -t 1.2517664 -s 0 -d 2 -p tcp -e 1540 -c 0 -i 51 -a 0 -x {0.0 2.0 19 ------- null}
+ -t 1.2517664 -s 2 -d 0 -p ack -e 40 -c 0 -i 53 -a 0 -x {2.0 0.0 20 ------- null}
- -t 1.2517664 -s 2 -d 0 -p ack -e 40 -c 0 -i 53 -a 0 -x {2.0 0.0 20 ------- null}
h -t 1.2517664 -s 2 -d 0 -p ack -e 40 -c 0 -i 53 -a 0 -x {2.0 0.0 -1 ------- null}
r -t 1.2616464 -s 2 -d 0 -p ack -e 40 -c 0 -i 52 -a 0 -x {2.0 0.0 20 ------- null}
+ -t 1.2616464 -s 0 -d 2 -p tcp -e 1540 -c 0 -i 54 -a 0 -x {0.0 2.0 21 ------- null}
- -t 1.2616464 -s 0 -d 2 -p tcp -e 1540 -c 0 -i 54 -a 0 -x {0.0 2.0 21 ------- null}
h -t 1.2616464 -s 0 -d 2 -p tcp -e 1540 -c 0 -i 54 -a 0 -x {0.0 2.0 -1 ------- null}
+ -t 1.2616464 -s 0 -d 2 -p tcp -e 1540 -c 0 -i 55 -a 0 -x {0.0 2.0 22 ------- null}
r -t 1.2617696 -s 2 -d 0 -p ack -e 40 -c 0 -i 53 -a 0 -x {2.0 0.0 20 ------- null}
+ -t 1.2617696 -s 0 -d 2 -p tcp -e 1540 -c 0 -i 56 -a 0 -x {0.0 2.0 23 ------- null}
d -t 1.2617696 -s 0 -d 2 -p tcp -e 1540 -c 0 -i 56 -a 0 -x {0.0 2.0 23 ------- null}
- -t 1.2617696 -s 0 -d 2 -p tcp -e 1540 -c 0 -i 55 -a 0 -x {0.0 2.0 22 ------- null}
h -t 1.2617696 -s 0 -d 2 -p tcp -e 1540 -c 0 -i 55 -a 0 -x {0.0 2.0 -1 ------- null}
r -t 1.2717696 -s 0 -d 2 -p tcp -e 1540 -c 0 -i 54 -a 0 -x {0.0 2.0 21 ------- null}
+ -t 1.2717696 -s 2 -d 0 -p ack -e 40 -c 0 -i 57 -a 0 -x {2.0 0.0 21 ------- null}
- -t 1.2717696 -s 2 -d 0 -p ack -e 40 -c 0 -i 57 -a 0 -x {2.0 0.0 21 ------- null}
h -t 1.2717696 -s 2 -d 0 -p ack -e 40 -c 0 -i 57 -a 0 -x {2.0 0.0 -1 ------- null}
r -t 1.2718928 -s 0 -d 2 -p tcp -e 1540 -c 0 -i 55 -a 0 -x {0.0 2.0 22 ------- null}
+ -t 1.2718928 -s 2 -d 0 -p ack -e 40 -c 0 -i 58 -a 0 -x {2.0 0.0 22 ------- null}
- -t 1.2718928 -s 2 -d 0 -p ack -e 40 -c 0 -i 58 -a 0 -x {2.0 0.0 22 ------- null}
h -t 1.2718928 -s 2 -d 0 -p ack -e 40 -c 0 -i 58 -a 0 -x {2.0 0.0 -1 ------- null}
r -t 1.2817728 -s 2 -d 0 -p ack -e 40 -c 0 -i 57 -a 0 -x {2.0 0.0 21 ------- null}
r -t 1.281896 -s 2 -d 0 -p ack -e 40 -c 0 -i 58 -a 0 -x {2.0 0.0 22 ------- null}
+ -t 1.281896 -s 0 -d 2 -p tcp -e 1540 -c 0 -i 59 -a 0 -x {0.0 2.0 24 ------- null}
- -t 1.281896 -s 0 -d 2 -p tcp -e 1540 -c 0 -i 59 -a 0 -x {0.0 2.0 24 ------- null}
h -t 1.281896 -s 0 -d 2 -p tcp -e 1540 -c 0 -i 59 -a 0 -x {0.0 2.0 -1 ------- null}
+ -t 1.281896 -s 0 -d 2 -p tcp -e 1540 -c 0 -i 60 -a 0 -x {0.0 2.0 25 ------- null}
- -t 1.2820192 -s 0 -d 2 -p tcp -e 1540 -c 0 -i 60 -a 0 -x {0.0 2.0 25 ------- null}
h -t 1.2820192 -s 0 -d 2 -p tcp -e 1540 -c 0 -i 60 -a 0 -x {0.0 2.0 -1 ------- null}
r -t 1.2920192 -s 0 -d 2 -p tcp -e 1540 -c 0 -i 59 -a 0 -x {0.0 2.0 24 ------- null}
+ -t 1.2920192 -s 2 -d 0 -p ack -e 40 -c 0 -i 61 -a 0 -x {2.0 0.0 22 ------- null}
- -t 1.2920192 -s 2 -d 0 -p ack -e 40 -c 0 -i 61 -a 0 -x {2.0 0.0 22 ------- null}
h -t 1.2920192 -s 2 -d 0 -p ack -e 40 -c 0 -i 61 -a 0 -x {2.0 0.0 -1 ------- null}
r -t 1.2921424 -s 0 -d 2 -p tcp -e 1540 -c 0 -i 60 -a 0 -x {0.0 2.0 25 ------- null}
+ -t 1.2921424 -s 2 -d 0 -p ack -e 40 -c 0 -i 62 -a 0 -x {2.0 0.0 22 ------- null}
- -t 1.2921424 -s 2 -d 0 -p ack -e 40 -c 0 -i 62 -a 0 -x {2.0 0.0 22 ------- null}
h -t 1.2921424 -s 2 -d 0 -p ack -e 40 -c 0 -i 62 -a 0 -x {2.0 0.0 -1 ------- null}
r -t 1.3020224 -s 2 -d 0 -p ack -e 40 -c 0 -i 61 -a 0 -x {2.0 0.0 22 ------- null}
+ -t 1.3020224 -s 0 -d 2 -p tcp -e 1540 -c 0 -i 63 -a 0 -x {0.0 2.0 26 ------- null}
- -t 1.3020224 -s 0 -d 2 -p tcp -e 1540 -c 0 -i 63 -a 0 -x {0.0 2.0 26 ------- null}
h -t 1.3020224 -s 0 -d 2 -p tcp -e 1540 -c 0 -i 63 -a 0 -x {0.0 2.0 -1 ------- null}
r -t 1.3021456 -s 2 -d 0 -p ack -e 40 -c 0 -i 62 -a 0 -x {2.0 0.0 22 ------- null}
+ -t 1.3021456 -s 0 -d 2 -p tcp -e 1540 -c 0 -i 64 -a 0 -x {0.0 2.0 27 ------- null}
- -t 1.3021456 -s 0 -d 2 -p tcp -e 1540 -c 0 -i 64 -a 0 -x {0.0 2.0 27 ------- null}
h -t 1.3021456 -s 0 -d 2 -p tcp -e 1540 -c 0 -i 64 -a 0 -x {0.0 2.0 -1 ------- null}
r -t 1.3121456 -s 0 -d 2 -p tcp -e 1540 -c 0 -i 63 -a 0 -x {0.0 2.0 26 ------- null}
+ -t 1.3121456 -s 2 -d 0 -p ack -e 40 -c 0 -i 65 -a 0 -x {2.0 0.0 22 ------- null}
- -t 1.3121456 -s 2 -d 0 -p ack -e 40 -c 0 -i 65 -a 0 -x {2.0 0.0 22 ------- null}
h -t 1.3121456 -s 2 -d 0 -p ack -e 40 -c 0 -i 65 -a 0 -x {2.0 0.0 -1 ------- null}
r -t 1.3122688 -s 0 -d 2 -p tcp -e 1540 -c 0 -i 64 -a 0 -x {0.0 2.0 27 ------- null}
+ -t 1.3122688 -s 2 -d 0 -p ack -e 40 -c 0 -i 66 -a 0 -x {2.0 0.0 22 ------- null}
- -t 1.3122688 -s 2 -d 0 -p ack -e 40 -c 0 -i 66 -a 0 -x {2.0 0.0 22 ------- null}
h -t 1.3122688 -s 2 -d 0 -p ack -e 40 -c 0 -i 66 -a 0 -x {2.0 0.0 -1 ------- null}
r -t 1.3221488 -s 2 -d 0 -p ack -e 40 -c 0 -i 65 -a 0 -x {2.0 0.0 22 ------- null}
+ -t 1.3221488 -s 0 -d 2 -p tcp -e 1540 -c 0 -i 67 -a 0 -x {0.0 2.0 23 ---A--- null}
- -t 1.3221488 -s 0 -d 2 -p tcp -e 1540 -c 0 -i 67 -a 0 -x {0.0 2.0 23 ---A--- null}
h -t 1.3221488 -s 0 -d 2 -p tcp -e 1540 -c 0 -i 67 -a 0 -x {0.0 2.0 -1 ---A--- null}
r -t 1.322272 -s 2 -d 0 -p ack -e 40 -c 0 -i 66 -a 0 -x {2.0 0.0 22 ------- null}
r -t 1.332272 -s 0 -d 2 -p tcp -e 1540 -c 0 -i 67 -a 0 -x {0.0 2.0 23 ---A--- null}
+ -t 1.332272 -s 2 -d 0 -p ack -e 40 -c 0 -i 68 -a 0 -x {2.0 0.0 27 ------- null}
- -t 1.332272 -s 2 -d 0 -p ack -e 40 -c 0 -i 68 -a 0 -x {2.0 0.0 27 ------- null}
h -t 1.332272 -s 2 -d 0 -p ack -e 40 -c 0 -i 68 -a 0 -x {2.0 0.0 -1 ------- null}
r -t 1.3422752 -s 2 -d 0 -p ack -e 40 -c 0 -i 68 -a 0 -x {2.0 0.0 27 ------- null}
+ -t 1.3422752 -s 0 -d 2 -p tcp -e 1540 -c 0 -i 69 -a 0 -x {0.0 2.0 28 ------- null}
- -t 1.3422752 -s 0 -d 2 -p tcp -e 1540 -c 0 -i 69 -a 0 -x {0.0 2.0 28 ------- null}
h -t 1.3422752 -s 0 -d 2 -p tcp -e 1540 -c 0 -i 69 -a 0 -x {0.0 2.0 -1 ------- null}
+ -t 1.3422752 -s 0 -d 2 -p tcp -e 1540 -c 0 -i 70 -a 0 -x {0.0 2.0 29 ------- null}
- -t 1.3423984 -s 0 -d 2 -p tcp -e 1540 -c 0 -i 70 -a 0 -x {0.0 2.0 29 ------- null}
h -t 1.3423984 -s 0 -d 2 -p tcp -e 1540 -c 0 -i 70 -a 0 -x {0.0 2.0 -1 ------- null}
r -t 1.3523984 -s 0 -d 2 -p tcp -e 1540 -c 0 -i 69 -a 0 -x {0.0 2.0 28 ------- null}
+ -t 1.3523984 -s 2 -d 0 -p ack -e 40 -c 0 -i 71 -a 0 -x {2.0 0.0 28 ------- null}
- -t 1.3523984 -s 2 -d 0 -p ack -e 40 -c 0 -i 71 -a 0 -x {2.0 0.0 28 ------- null}
h -t 1.3523984 -s 2 -d 0 -p ack -e 40 -c 0 -i 71 -a 0 -x {2.0 0.0 -1 ------- null}
r -t 1.3525216 -s 0 -d 2 -p tcp -e 1540 -c 0 -i 70 -a 0 -x {0.0 2.0 29 ------- null}
+ -t 1.3525216 -s 2 -d 0 -p ack -e 40 -c 0 -i 72 -a 0 -x {2.0 0.0 29 ------- null}
- -t 1.3525216 -s 2 -d 0 -p ack -e 40 -c 0 -i 72 -a 0 -x {2.0 0.0 29 ------- null}
h -t 1.3525216 -s 2 -d 0 -p ack -e 40 -c 0 -i 72 -a 0 -x {2.0 0.0 -1 ------- null}
r -t 1.3624016 -s 2 -d 0 -p ack -e 40 -c 0 -i 71 -a 0 -x {2.0 0.0 28 ------- null}
+ -t 1.3624016 -s 0 -d 2 -p tcp -e 1540 -c 0 -i 73 -a 0 -x {0.0 2.0 30 ------- null}
- -t 1.3624016 -s 0 -d 2 -p tcp -e 1540 -c 0 -i 73 -a 0 -x {0.0 2.0 30 ------- null}
h -t 1.3624016 -s 0 -d 2 -p tcp -e 1540 -c 0 -i 73 -a 0 -x {0.0 2.0 -1 ------- null}
r -t 1.3625248 -s 2 -d 0 -p ack -e 40 -c 0 -i 72 -a 0 -x {2.0 0.0 29 ------- null}
+ -t 1.3625248 -s 0 -d 2 -p tcp -e 1540 -c 0 -i 74 -a 0 -x {0.0 2.0 31 ------- null}
- -t 1.3625248 -s 0 -d 2 -p tcp -e 1540 -c 0 -i 74 -a 0 -x {0.0 2.0 31 ------- null}
h -t 1.3625248 -s 0 -d 2 -p tcp -e 1540 -c 0 -i 74 -a 0 -x {0.0 2.0 -1 ------- null}
r -t 1.3725248 -s 0 -d 2 -p tcp -e 1540 -c 0 -i 73 -a 0 -x {0.0 2.0 30 ------- null}
+ -t 1.3725248 -s 2 -d 0 -p ack -e 40 -c 0 -i 75 -a 0 -x {2.0 0.0 30 ------- null}
- -t 1.3725248 -s 2 -d 0 -p ack -e 40 -c 0 -i 75 -a 0 -x {2.0 0.0 30 ------- null}
h -t 1.3725248 -s 2 -d 0 -p ack -e 40 -c 0 -i 75 -a 0 -x {2.0 0.0 -1 ------- null}
r -t 1.372648 -s 0 -d 2 -p tcp -e 1540 -c 0 -i 74 -a 0 -x {0.0 2.0 31 ------- null}
+ -t 1.372648 -s 2 -d 0 -p ack -e 40 -c 0 -i 76 -a 0 -x {2.0 0.0 31 ------- null}
- -t 1.372648 -s 2 -d 0 -p ack -e 40 -c 0 -i 76 -a 0 -x {2.0 0.0 31 ------- null}
h -t 1.372648 -s 2 -d 0 -p ack -e 40 -c 0 -i 76 -a 0 -x {2.0 0.0 -1 ------- null}
r -t 1.382528 -s 2 -d 0 -p ack -e 40 -c 0 -i 75 -a 0 -x {2.0 0.0 30 ------- null}
+ -t 1.382528 -s 0 -d 2 -p tcp -e 1540 -c 0 -i 77 -a 0 -x {0.0 2.0 32 ------- null}
- -t 1.382528 -s 0 -d 2 -p tcp -e 1540 -c 0 -i 77 -a 0 -x {0.0 2.0 32 ------- null}
h -t 1.382528 -s 0 -d 2 -p tcp -e 1540 -c 0 -i 77 -a 0 -x {0.0 2.0 -1 ------- null}
+ -t 1.382528 -s 0 -d 2 -p tcp -e 1540 -c 0 -i 78 -a 0 -x {0.0 2.0 33 ------- null}
r -t 1.3826512 -s 2 -d 0 -p ack -e 40 -c 0 -i 76 -a 0 -x {2.0 0.0 31 ------- null}
+ -t 1.3826512 -s 0 -d 2 -p tcp -e 1540 -c 0 -i 79 -a 0 -x {0.0 2.0 34 ------- null}
d -t 1.3826512 -s 0 -d 2 -p tcp -e 1540 -c 0 -i 79 -a 0 -x {0.0 2.0 34 ------- null}
- -t 1.3826512 -s 0 -d 2 -p tcp -e 1540 -c 0 -i 78 -a 0 -x {0.0 2.0 33 ------- null}
h -t 1.3826512 -s 0 -d 2 -p tcp -e 1540 -c 0 -i 78 -a 0 -x {0.0 2.0 -1 ------- null}
r -t 1.3926512 -s 0 -d 2 -p tcp -e 1540 -c 0 -i 77 -a 0 -x {0.0 2.0 32 ------- null}
+ -t 1.3926512 -s 2 -d 0 -p ack -e 40 -c 0 -i 80 -a 0 -x {2.0 0.0 32 ------- null}
- -t 1.3926512 -s 2 -d 0 -p ack -e 40 -c 0 -i 80 -a 0 -x {2.0 0.0 32 ------- null}
h -t 1.3926512 -s 2 -d 0 -p ack -e 40 -c 0 -i 80 -a 0 -x {2.0 0.0 -1 ------- null}
r -t 1.3927744 -s 0 -d 2 -p tcp -e 1540 -c 0 -i 78 -a 0 -x {0.0 2.0 33 ------- null}
+ -t 1.3927744 -s 2 -d 0 -p ack -e 40 -c 0 -i 81 -a 0 -x {2.0 0.0 33 ------- null}
- -t 1.3927744 -s 2 -d 0 -p ack -e 40 -c 0 -i 81 -a 0 -x {2.0 0.0 33 ------- null}
h -t 1.3927744 -s 2 -d 0 -p ack -e 40 -c 0 -i 81 -a 0 -x {2.0 0.0 -1 ------- null}
r -t 1.4026544 -s 2 -d 0 -p ack -e 40 -c 0 -i 80 -a 0 -x {2.0 0.0 32 ------- null}
+ -t 1.4026544 -s 0 -d 2 -p tcp -e 1540 -c 0 -i 82 -a 0 -x {0.0 2.0 35 ------- null}
- -t 1.4026544 -s 0 -d 2 -p tcp -e 1540 -c 0 -i 82 -a 0 -x {0.0 2.0 35 ------- null}
h -t 1.4026544 -s 0 -d 2 -p tcp -e 1540 -c 0 -i 82 -a 0 -x {0.0 2.0 -1 ------- null}
r -t 1.4027776 -s 2 -d 0 -p ack -e 40 -c 0 -i 81 -a 0 -x {2.0 0.0 33 ------- null}
+ -t 1.4027776 -s 0 -d 2 -p tcp -e 1540 -c 0 -i 83 -a 0 -x {0.0 2.0 36 ------- null}
+ -t 1.4027776 -s 0 -d 2 -p tcp -e 1540 -c 0 -i 84 -a 0 -x {0.0 2.0 37 ------- null}
d -t 1.4027776 -s 0 -d 2 -p tcp -e 1540 -c 0 -i 84 -a 0 -x {0.0 2.0 37 ------- null}
- -t 1.4027776 -s 0 -d 2 -p tcp -e 1540 -c 0 -i 83 -a 0 -x {0.0 2.0 36 ------- null}
h -t 1.4027776 -s 0 -d 2 -p tcp -e 1540 -c 0 -i 83 -a 0 -x {0.0 2.0 -1 ------- null}
r -t 1.4127776 -s 0 -d 2 -p tcp -e 1540 -c 0 -i 82 -a 0 -x {0.0 2.0 35 ------- null}
+ -t 1.4127776 -s 2 -d 0 -p ack -e 40 -c 0 -i 85 -a 0 -x {2.0 0.0 33 ------- null}
- -t 1.4127776 -s 2 -d 0 -p ack -e 40 -c 0 -i 85 -a 0 -x {2.0 0.0 33 ------- null}
h -t 1.4127776 -s 2 -d 0 -p ack -e 40 -c 0 -i 85 -a 0 -x {2.0 0.0 -1 ------- null}
r -t 1.4129008 -s 0 -d 2 -p tcp -e 1540 -c 0 -i 83 -a 0 -x {0.0 2.0 36 ------- null}
+ -t 1.4129008 -s 2 -d 0 -p ack -e 40 -c 0 -i 86 -a 0 -x {2.0 0.0 33 ------- null}
- -t 1.4129008 -s 2 -d 0 -p ack -e 40 -c 0 -i 86 -a 0 -x {2.0 0.0 33 ------- null}
h -t 1.4129008 -s 2 -d 0 -p ack -e 40 -c 0 -i 86 -a 0 -x {2.0 0.0 -1 ------- null}
r -t 1.4227808 -s 2 -d 0 -p ack -e 40 -c 0 -i 85 -a 0 -x {2.0 0.0 33 ------- null}
+ -t 1.4227808 -s 0 -d 2 -p tcp -e 1540 -c 0 -i 87 -a 0 -x {0.0 2.0 38 ------- null}
- -t 1.4227808 -s 0 -d 2 -p tcp -e 1540 -c 0 -i 87 -a 0 -x {0.0 2.0 38 ------- null}
h -t 1.4227808 -s 0 -d 2 -p tcp -e 1540 -c 0 -i 87 -a 0 -x {0.0 2.0 -1 ------- null}
r -t 1.422904 -s 2 -d 0 -p ack -e 40 -c 0 -i 86 -a 0 -x {2.0 0.0 33 ------- null}
+ -t 1.422904 -s 0 -d 2 -p tcp -e 1540 -c 0 -i 88 -a 0 -x {0.0 2.0 39 ------- null}
- -t 1.422904 -s 0 -d 2 -p tcp -e 1540 -c 0 -i 88 -a 0 -x {0.0 2.0 39 ------- null}
h -t 1.422904 -s 0 -d 2 -p tcp -e 1540 -c 0 -i 88 -a 0 -x {0.0 2.0 -1 ------- null}
r -t 1.432904 -s 0 -d 2 -p tcp -e 1540 -c 0 -i 87 -a 0 -x {0.0 2.0 38 ------- null}
+ -t 1.432904 -s 2 -d 0 -p ack -e 40 -c 0 -i 89 -a 0 -x {2.0 0.0 33 ------- null}
- -t 1.432904 -s 2 -d 0 -p ack -e 40 -c 0 -i 89 -a 0 -x {2.0 0.0 33 ------- null}
h -t 1.432904 -s 2 -d 0 -p ack -e 40 -c 0 -i 89 -a 0 -x {2.0 0.0 -1 ------- null}
r -t 1.4330272 -s 0 -d 2 -p tcp -e 1540 -c 0 -i 88 -a 0 -x {0.0 2.0 39 ------- null}
+ -t 1.4330272 -s 2 -d 0 -p ack -e 40 -c 0 -i 90 -a 0 -x {2.0 0.0 33 ------- null}
- -t 1.4330272 -s 2 -d 0 -p ack -e 40 -c 0 -i 90 -a 0 -x {2.0 0.0 33 ------- null}
h -t 1.4330272 -s 2 -d 0 -p ack -e 40 -c 0 -i 90 -a 0 -x {2.0 0.0 -1 ------- null}
r -t 1.4429072 -s 2 -d 0 -p ack -e 40 -c 0 -i 89 -a 0 -x {2.0 0.0 33 ------- null}
+ -t 1.4429072 -s 0 -d 2 -p tcp -e 1540 -c 0 -i 91 -a 0 -x {0.0 2.0 34 ---A--- null}
- -t 1.4429072 -s 0 -d 2 -p tcp -e 1540 -c 0 -i 91 -a 0 -x {0.0 2.0 34 ---A--- null}
h -t 1.4429072 -s 0 -d 2 -p tcp -e 1540 -c 0 -i 91 -a 0 -x {0.0 2.0 -1 ---A--- null}
r -t 1.4430304 -s 2 -d 0 -p ack -e 40 -c 0 -i 90 -a 0 -x {2.0 0.0 33 ------- null}
r -t 1.4530304 -s 0 -d 2 -p tcp -e 1540 -c 0 -i 91 -a 0 -x {0.0 2.0 34 ---A--- null}
+ -t 1.4530304 -s 2 -d 0 -p ack -e 40 -c 0 -i 92 -a 0 -x {2.0 0.0 36 ------- null}
- -t 1.4530304 -s 2 -d 0 -p ack -e 40 -c 0 -i 92 -a 0 -x {2.0 0.0 36 ------- null}
h -t 1.4530304 -s 2 -d 0 -p ack -e 40 -c 0 -i 92 -a 0 -x {2.0 0.0 -1 ------- null}
r -t 1.4630336 -s 2 -d 0 -p ack -e 40 -c 0 -i 92 -a 0 -x {2.0 0.0 36 ------- null}
+ -t 1.4630336 -s 0 -d 2 -p tcp -e 1540 -c 0 -i 93 -a 0 -x {0.0 2.0 37 ------- null}